Variables="alpha" "beta" "omega"
Zone T="R=500s" I=200 J=101
100.0	0.051	-0.004234262924563783
100.0	0.052	-0.004266287603443222
100.0	0.053	-0.004297239803663337
100.0	0.054	-0.00432712336914341
100.0	0.055	-0.004355940603048956
100.0	0.056	-0.004383692649256815
100.0	0.057	-0.004410379875498782
100.0	0.058	-0.004436002228333438
100.0	0.059	-0.0044605595858426186
100.0	0.06	-0.0044840521036877004
100.0	0.061	-0.004506480557908112
100.0	0.062	-0.0045278466860577
100.0	0.063	-0.004548153527605636
100.0	0.064	-0.0045674057641504106
100.0	0.065	-0.004585610059491864
100.0	0.066	-0.004602775399718611
100.0	0.067	-0.0046189134329349246
100.0	0.068	-0.004634038808530139
100.0	0.069	-0.004648169515740472
100.0	0.07	-0.004661327221716439
100.0	0.071	-0.004673537608948978
100.0	0.072	-0.004684830712804858
100.0	0.073	-0.004695241259827146
100.0	0.074	-0.004704809007953561
100.0	0.075	-0.004713579090119047
100.0	0.076	-0.004721602363315266
100.0	0.077	-0.004728935765190103
100.0	0.078	-0.004735642681075473
100.0	0.079	-0.0047417933244022475
100.0	0.08	-0.004747465133849919
100.0	0.081	-0.004752743190809176
100.0	0.082	-0.004757720661116728
100.0	0.083	-0.004762499264581834
100.0	0.084	-0.004767189776397136
100.0	0.085	-0.004771912563804562
100.0	0.086	-0.004776798161285769
100.0	0.087	-0.004781987886695996
100.0	0.088	-0.004787634499935097
100.0	0.089	-0.004793902904362504
100.0	0.09	-0.004800970889087717
100.0	0.091	-0.004809029907960302
100.0	0.092	-0.0048182858880619316
100.0	0.093	-0.004828960055117972
100.0	0.094	-0.004841289759106349
100.0	0.095	-0.0048555292746419254
100.0	0.096	-0.004871950542599613
100.0	0.097	-0.0048908438069996665
100.0	0.098	-0.004912518087152915
100.0	0.099	-0.0049373014069038655
100.0	0.1	-0.0049655406812708055
100.0	0.101	-0.004997601134901639
100.0	0.102	-0.005033865097456214
100.0	0.103	-0.005074729988288061
100.0	0.104	-0.0051206052691060485
100.0	0.105	-0.005171908111722875
100.0	0.106	-0.005229057504982497
100.0	0.107	-0.005292466519230665
100.0	0.108	-0.005362532471454246
100.0	0.109	-0.005439624805883596
100.0	0.11	-0.005524070644805235
100.0	0.111	-0.0056161381894399565
100.0	0.112	-0.005716018476203383
100.0	0.113	-0.005823806412228331
100.0	0.114	-0.005939482491861328
100.0	0.115	-0.006062897053365928
100.0	0.116	-0.006193759252908718
100.0	0.117	-0.006331632958523459
100.0	0.118	-0.006475941368208872
100.0	0.119	-0.006625981278992611
100.0	0.12	-0.006780946663231313
100.0	0.121	-0.006939959786442491
100.0	0.122	-0.007068735120547062
100.0	0.123	-0.006855541798184378
100.0	0.124	-0.006650250537657237
100.0	0.125	-0.006454092234783019
100.0	0.126	-0.006268144491597872
100.0	0.127	-0.0060933123804870525
100.0	0.128	-0.005930318887333838
100.0	0.129	-0.0057797039918549625
100.0	0.13	-0.005641830845399075
100.0	0.131	-0.005516897332759688
100.0	0.132	-0.00540495136107599
100.0	0.133	-0.005305908408969213
100.0	0.134	-0.005219570116222722
100.0	0.135	-0.005145642950464998
100.0	0.136	-0.0050837562238941975
100.0	0.137	-0.005033478943144124
100.0	0.138	-0.004994335151042181
100.0	0.139	-0.004965817565227596
100.0	0.14	-0.004947399435323631
100.0	0.141	-0.0049385446302964145
100.0	0.142	-0.004938716034274417
100.0	0.143	-0.004947382374920548
100.0	0.144	-0.004964023636574578
100.0	0.145	-0.004988135224162858
100.0	0.146	-0.00501923104717277
100.0	0.147	-0.005056845687309992
100.0	0.148	-0.00510053580295993
100.0	0.149	-0.00514988090934877
100.0	0.15	-0.005204483657420923
100.0	0.151	-0.0052639697185432035
100.0	0.152	-0.005327987365781188
100.0	0.153	-0.005396206828710073
100.0	0.154	-0.005468319484453643
100.0	0.155	-0.0055440369369625115
100.0	0.156	-0.0056230900254574
100.0	0.157	-0.005705227795020924
100.0	0.158	-0.005790216454562355
100.0	0.159	-0.005877838341972566
100.0	0.16	-0.005967890910433313
100.0	0.161	-0.006060185747053544
100.0	0.162	-0.006154547630631162
100.0	0.163	-0.006250813633847938
100.0	0.164	-0.0063488322723629
100.0	0.165	-0.0064484627024527195
100.0	0.166	-0.006549573967183909
100.0	0.167	-0.0066520442905683135
100.0	0.168	-0.0067557604183283064
100.0	0.169	-0.006860617003638062
100.0	0.17	-0.006966516035611611
100.0	0.171	-0.007073366308579227
100.0	0.172	-0.007181082929673801
100.0	0.173	-0.007289586862404318
100.0	0.174	-0.007398804503970833
100.0	0.175	-0.0075086672939708565
100.0	0.176	-0.007619111352471813
100.0	0.177	-0.007730077145060232
100.0	0.178	-0.007841509173268623
100.0	0.179	-0.007953355688154485
100.0	0.18	-0.008065568425561373
100.0	0.181	-0.008178102361251176
100.0	0.182	-0.00829091548433869
100.0	0.183	-0.008403968587900244
100.0	0.184	-0.008517225075009334
100.0	0.185	-0.008630650779339812
100.0	0.186	-0.008744213799061797
100.0	0.187	-0.008857884342982202
100.0	0.188	-0.008971634587933451
100.0	0.189	-0.009085438546759974
100.0	0.19	-0.009199271945690465
100.0	0.191	-0.009313112110789303
100.0	0.192	-0.00942693786242338
100.0	0.193	-0.009540729417340991
100.0	0.194	-0.009654468297788064
100.0	0.195	-0.00976813724692637
100.0	0.196	-0.009881720150181657
100.0	0.197	-0.00999520196226948
100.0	0.198	-0.010108568639051239
100.0	0.199	-0.010221807074251153
100.0	0.2	-0.010334905040423444
100.0	0.201	-0.01044785113396853
100.0	0.202	-0.01056063472385446
100.0	0.203	-0.010673245903818756
100.0	0.204	-0.010785675447627882
100.0	0.205	-0.01089791476757734
100.0	0.206	-0.011009955875346441
100.0	0.207	-0.011121791345760763
100.0	0.208	-0.011233414282723068
100.0	0.209	-0.011344818287346969
100.0	0.21	-0.011455997428236069
100.0	0.211	-0.011566946213591866
100.0	0.212	-0.011677659565045065
100.0	0.213	-0.011788132793243259
100.0	0.214	-0.01189836157486408
100.0	0.215	-0.012008341931122234
100.0	0.216	-0.012118070207611163
100.0	0.217	-0.012227543055302445
100.0	0.218	-0.01233675741277272
100.0	0.219	-0.012445710489565207
100.0	0.22	-0.012554399750366334
100.0	0.221	-0.012662822900385569
100.0	0.222	-0.01277097787131288
100.0	0.223	-0.01287886280849781
100.0	0.224	-0.012986476058400887
100.0	0.225	-0.013093816157227376
100.0	0.226	-0.013200881819979731
100.0	0.227	-0.013307671930138949
100.0	0.228	-0.013414185530119135
100.0	0.229	-0.013520421812065204
100.0	0.23	-0.013626380109314218
100.0	0.231	-0.01373205988827074
100.0	0.232	-0.013837460740791271
100.0	0.233	-0.013942582376921758
100.0	0.234	-0.014047424618191232
100.0	0.235	-0.014151987391091424
100.0	0.236	-0.014256270721035559
100.0	0.237	-0.01436027472666695
100.0	0.238	-0.014463999614380994
100.0	0.239	-0.014567445673270571
100.0	0.24	-0.014670613270205808
100.0	0.241	-0.014773502845344741
100.0	0.242	-0.014876114907774851
100.0	0.243	-0.014978450031371547
100.0	0.244	-0.015080508850985226
100.0	0.245	-0.015182292058776196
100.0	0.246	-0.015283800400690804
100.0	0.247	-0.015385034673261258
100.0	0.248	-0.015485995720414253
100.0	0.249	-0.015586684430555057
100.0	0.25	-0.01568710173380655
102.0	0.051	-0.0041607484816157695
102.0	0.052	-0.004191186042123125
102.0	0.053	-0.0042205471845796925
102.0	0.054	-0.004248834256746598
102.0	0.055	-0.004276048275468149
102.0	0.056	-0.004302189304166344
102.0	0.057	-0.004327256813557376
102.0	0.058	-0.004351250031101271
102.0	0.059	-0.004374168284509572
102.0	0.06	-0.004396011341250014
102.0	0.061	-0.004416779734986849
102.0	0.062	-0.004436475120655834
102.0	0.063	-0.004455100589141352
102.0	0.064	-0.00447266101236453
102.0	0.065	-0.004489163376896808
102.0	0.066	-0.004504617119696511
102.0	0.067	-0.004519034464255487
102.0	0.068	-0.004532430756863422
102.0	0.069	-0.0045448248030311575
102.0	0.07	-0.004556239204369254
102.0	0.071	-0.0045667006962138885
102.0	0.072	-0.00457624048692964
102.0	0.073	-0.0045848945997641445
102.0	0.074	-0.004592704219115122
102.0	0.075	-0.004599716042701848
102.0	0.076	-0.004605982642417069
102.0	0.077	-0.004611562836364751
102.0	0.078	-0.004616522075413999
102.0	0.079	-0.0046209328479266485
102.0	0.08	-0.0046248751066026
102.0	0.081	-0.00462843672161791
102.0	0.082	-0.004631713964866052
102.0	0.083	-0.00463481202961245
102.0	0.084	-0.004637845590543149
102.0	0.085	-0.004640939408564822
102.0	0.086	-0.004644228984668407
102.0	0.087	-0.004647861266508008
102.0	0.088	-0.004651995410338099
102.0	0.089	-0.004656803599976631
102.0	0.09	-0.004662471921828449
102.0	0.091	-0.004669201293379359
102.0	0.092	-0.004677208438262559
102.0	0.093	-0.004686726896336548
102.0	0.094	-0.00469800805143355
102.0	0.095	-0.004711322150164299
102.0	0.096	-0.004726959275248518
102.0	0.097	-0.004745230222112422
102.0	0.098	-0.004766467209950417
102.0	0.099	-0.00479102433561339
102.0	0.1	-0.004819277650954768
102.0	0.101	-0.004851624709784784
102.0	0.102	-0.004888483390770881
102.0	0.103	-0.004930289756052238
102.0	0.104	-0.004977494656527877
102.0	0.105	-0.005030558745932507
102.0	0.106	-0.005089945526685984
102.0	0.107	-0.005156112033509003
102.0	0.108	-0.005229496786270567
102.0	0.109	-0.005310504737809843
102.0	0.11	-0.005399489138013305
102.0	0.111	-0.005496730566801065
102.0	0.112	-0.005602413873497457
102.0	0.113	-0.005716604393699239
102.0	0.114	-0.00583922552909432
102.0	0.115	-0.005970040433757688
102.0	0.116	-0.006108640934313958
102.0	0.117	-0.006254446672560536
102.0	0.118	-0.006406716602247699
102.0	0.119	-0.00656457338539384
102.0	0.12	-0.006727039170620144
102.0	0.121	-0.0067092339141072745
102.0	0.122	-0.006478477398140857
102.0	0.123	-0.006255390820556202
102.0	0.124	-0.006041427152519942
102.0	0.125	-0.005837872771850431
102.0	0.126	-0.0056458211572015206
102.0	0.127	-0.005466158864279255
102.0	0.128	-0.005299562430975549
102.0	0.129	-0.005146504178022368
102.0	0.13	-0.0050072646803400005
102.0	0.131	-0.004881949816996466
102.0	0.132	-0.004770510605375291
102.0	0.133	-0.004672764367885314
102.0	0.134	-0.00458841610654981
102.0	0.135	-0.0045170792431951145
102.0	0.136	-0.004458295119310895
102.0	0.137	-0.004411550845371087
102.0	0.138	-0.004376295249853593
102.0	0.139	-0.00435195281025863
102.0	0.14	-0.0043379355532021345
102.0	0.141	-0.004333652992456855
102.0	0.142	-0.004338520232016006
102.0	0.143	-0.004351964400522601
102.0	0.144	-0.004373429604890553
102.0	0.145	-0.00440238059859114
102.0	0.146	-0.00443830535737503
102.0	0.147	-0.0044807167440250786
102.0	0.148	-0.004529153428744247
102.0	0.149	-0.004583180213191781
102.0	0.15	-0.004642387886875924
102.0	0.151	-0.004706392726263923
102.0	0.152	-0.004774835728302598
102.0	0.153	-0.004847381654677296
102.0	0.154	-0.004923717948316871
102.0	0.155	-0.0050035535713055385
102.0	0.156	-0.005086617803125409
102.0	0.157	-0.005172659028748896
102.0	0.158	-0.005261443539456792
102.0	0.159	-0.005352754362938537
102.0	0.16	-0.005446390134438707
102.0	0.161	-0.0055421640172319455
102.0	0.162	-0.005639902677431551
102.0	0.163	-0.005739445315974212
102.0	0.164	-0.005840642758938259
102.0	0.165	-0.005943356605866285
102.0	0.166	-0.006047458434902669
102.0	0.167	-0.006152829062970421
102.0	0.168	-0.006259357858442285
102.0	0.169	-0.006366942103924207
102.0	0.17	-0.006475486406125447
102.0	0.171	-0.0065849021499979335
102.0	0.172	-0.006695106994380439
102.0	0.173	-0.0068060244060639445
102.0	0.174	-0.006917583229846793
102.0	0.175	-0.007029717291760427
102.0	0.176	-0.00714236503299617
102.0	0.177	-0.007255469172307859
102.0	0.178	-0.007368976394552129
102.0	0.179	-0.0074828370634024265
102.0	0.18	-0.00759700495634017
102.0	0.181	-0.007711437020031917
102.0	0.182	-0.00782609314461397
102.0	0.183	-0.00794093595528194
102.0	0.184	-0.008055930619799263
102.0	0.185	-0.00817104467063298
102.0	0.186	-0.008286247840639839
102.0	0.187	-0.008401511911006306
102.0	0.188	-0.00851681057065712
102.0	0.189	-0.00863211928620786
102.0	0.19	-0.008747415181364423
102.0	0.191	-0.008862676925375387
102.0	0.192	-0.008977884629584511
102.0	0.193	-0.009093019751454687
102.0	0.194	-0.009208065005640873
102.0	0.195	-0.009323004281321825
102.0	0.196	-0.009437822565501158
102.0	0.197	-0.009552505871723852
102.0	0.198	-0.009667041173813298
102.0	0.199	-0.009781416344203386
102.0	0.2	-0.009895620096618863
102.0	0.201	-0.010009641932628559
102.0	0.202	-0.010123472091909747
102.0	0.203	-0.01023710150593119
102.0	0.204	-0.010350521754598722
102.0	0.205	-0.010463725026083894
102.0	0.206	-0.010576704079019022
102.0	0.207	-0.010689452207482065
102.0	0.208	-0.010801963208033892
102.0	0.209	-0.010914231349158764
102.0	0.21	-0.01102625134241443
102.0	0.211	-0.011138018315731281
102.0	0.212	-0.011249527788128353
102.0	0.213	-0.011360775646326439
102.0	0.214	-0.011471758122611187
102.0	0.215	-0.011582471774217016
102.0	0.216	-0.011692913463943725
102.0	0.217	-0.011803080342024597
102.0	0.218	-0.01191296982905253
102.0	0.219	-0.012022579599997847
102.0	0.22	-0.012131907569190813
102.0	0.221	-0.012240951876221776
102.0	0.222	-0.012349710872672701
102.0	0.223	-0.012458183109637248
102.0	0.224	-0.012566367326045427
102.0	0.225	-0.012674262437612507
102.0	0.226	-0.012781867526472276
102.0	0.227	-0.012889181831411193
102.0	0.228	-0.012996204738649972
102.0	0.229	-0.0131029357732492
102.0	0.23	-0.013209374590896598
102.0	0.231	-0.013315520970215164
102.0	0.232	-0.013421374805559376
102.0	0.233	-0.013526936100109539
102.0	0.234	-0.013632204959514838
102.0	0.235	-0.013737181585755149
102.0	0.236	-0.013841866271346589
102.0	0.237	-0.013946259394051396
102.0	0.238	-0.014050361411652815
102.0	0.239	-0.014154172857176165
102.0	0.24	-0.014257694334296675
102.0	0.241	-0.014360926513054218
102.0	0.242	-0.014463870125738522
102.0	0.243	-0.014566525963070375
102.0	0.244	-0.014668894870544394
102.0	0.245	-0.014770977745027489
102.0	0.246	-0.014872775531379038
102.0	0.247	-0.014974289219523214
102.0	0.248	-0.01507551984143891
102.0	0.249	-0.01517646846842247
102.0	0.25	-0.015277136208508046
104.0	0.051	-0.00408921102748479
104.0	0.052	-0.004118124322458594
104.0	0.053	-0.004145956199500819
104.0	0.054	-0.00417270762347407
104.0	0.055	-0.0041983784478521165
104.0	0.056	-0.004222967751146445
104.0	0.057	-0.004246474190553805
104.0	0.058	-0.004268896343333553
104.0	0.059	-0.004290233041897799
104.0	0.06	-0.004310483704597943
104.0	0.061	-0.00432964866587094
104.0	0.062	-0.004347729505466249
104.0	0.063	-0.0043647293784216225
104.0	0.064	-0.0043806533451912376
104.0	0.065	-0.0043955087031075386
104.0	0.066	-0.004409305318328515
104.0	0.067	-0.00442205595874673
104.0	0.068	-0.004433776627728914
104.0	0.069	-0.004444486898885322
104.0	0.07	-0.004454210252412342
104.0	0.071	-0.004462974413538318
104.0	0.072	-0.004470811694297896
104.0	0.073	-0.004477759339973698
104.0	0.074	-0.0044838598822550335
104.0	0.075	-0.0044891615012269525
104.0	0.076	-0.0044937183992838445
104.0	0.077	-0.004497591190145126
104.0	0.078	-0.004500847306734389
104.0	0.079	-0.004503561432297913
104.0	0.08	-0.0045058159593041195
104.0	0.081	-0.004507701481285818
104.0	0.082	-0.004509317322965815
104.0	0.083	-0.004510772114238546
104.0	0.084	-0.0045121844138926925
104.0	0.085	-0.004513683388648961
104.0	0.086	-0.00451540955316607
104.0	0.087	-0.004517515576175692
104.0	0.088	-0.0045201671567874115
104.0	0.089	-0.004523543974519723
104.0	0.09	-0.00452784071373463
104.0	0.091	-0.004533268161553998
104.0	0.092	-0.00454005437399964
104.0	0.093	-0.004548445899850064
104.0	0.094	-0.004558709045491073
104.0	0.095	-0.004571131153508894
104.0	0.096	-0.004586021855990749
104.0	0.097	-0.0046037142460245714
104.0	0.098	-0.004624565889730164
104.0	0.099	-0.004648959571975372
104.0	0.1	-0.0046773036335216
104.0	0.101	-0.004710031711985758
104.0	0.102	-0.004747601644111336
104.0	0.103	-0.004790493222754754
104.0	0.104	-0.004839204429464385
104.0	0.105	-0.0048942456902673305
104.0	0.106	-0.0049561316372385145
104.0	0.107	-0.0050253698224684866
104.0	0.108	-0.005102445853254695
104.0	0.109	-0.005187804542121935
104.0	0.11	-0.005281826944819962
104.0	0.111	-0.005384803650950445
104.0	0.112	-0.0054969054309093905
104.0	0.113	-0.005618153311465788
104.0	0.114	-0.00574839122997007
104.0	0.115	-0.005887265347415977
104.0	0.116	-0.006034214497566543
104.0	0.117	-0.006188475702313163
104.0	0.118	-0.006349106943980167
104.0	0.119	-0.006515026602921279
104.0	0.12	-0.006384412139697999
104.0	0.121	-0.006135648612695835
104.0	0.122	-0.0058941426866528385
104.0	0.123	-0.005661597603066453
104.0	0.124	-0.005439538016944049
104.0	0.125	-0.005229274621483543
104.0	0.126	-0.005031884470342409
104.0	0.127	-0.004848205167493102
104.0	0.128	-0.004678840146023716
104.0	0.129	-0.004524172075989722
104.0	0.13	-0.004384381732627397
104.0	0.131	-0.004259470145024593
104.0	0.132	-0.0041492823453779
104.0	0.133	-0.0040535314632634675
104.0	0.134	-0.003971822240121385
104.0	0.135	-0.0039036732918850845
104.0	0.136	-0.003848537644216536
104.0	0.137	-0.0038058212280409815
104.0	0.138	-0.0037748991599881724
104.0	0.139	-0.003755129749681447
104.0	0.14	-0.003745866272389459
104.0	0.141	-0.0037464666217102765
104.0	0.142	-0.0037563010104217994
104.0	0.143	-0.003774757923388227
104.0	0.144	-0.0038012485417372806
104.0	0.145	-0.0038352098608105036
104.0	0.146	-0.00387610671611293
104.0	0.147	-0.003923432914826435
104.0	0.148	-0.003976711651229632
104.0	0.149	-0.004035495361683774
104.0	0.15	-0.004099365152136452
104.0	0.151	-0.004167929910314674
104.0	0.152	-0.004240825194043559
104.0	0.153	-0.004317711970733915
104.0	0.154	-0.004398275266793073
104.0	0.155	-0.0044822227734671255
104.0	0.156	-0.004569283444512917
104.0	0.157	-0.0046592061122597865
104.0	0.158	-0.0047517581413305055
104.0	0.159	-0.004846724133925587
104.0	0.16	-0.004943904695274571
104.0	0.161	-0.005043115265260663
104.0	0.162	-0.005144185018717495
104.0	0.163	-0.0052469558352117645
104.0	0.164	-0.005351281337843067
104.0	0.165	-0.005457025998982198
104.0	0.166	-0.005564064310425776
104.0	0.167	-0.005672280015038151
104.0	0.168	-0.005781565396435857
104.0	0.169	-0.005891820623200207
104.0	0.17	-0.006002953144148795
104.0	0.171	-0.006114877130932718
104.0	0.172	-0.006227512964930064
104.0	0.173	-0.006340786764769415
104.0	0.174	-0.006454629951572074
104.0	0.175	-0.006568978848942318
104.0	0.176	-0.006683774314953494
104.0	0.177	-0.006798961403479343
104.0	0.178	-0.006914489052619477
104.0	0.179	-0.00703030979787037
104.0	0.18	-0.007146379508105125
104.0	0.181	-0.007262657142394856
104.0	0.182	-0.007379104526011632
104.0	0.183	-0.007495686144006529
104.0	0.184	-0.0076123689508531935
104.0	0.185	-0.007729122194886485
104.0	0.186	-0.007845917256317288
104.0	0.187	-0.007962727497617084
104.0	0.188	-0.00807952812535658
104.0	0.189	-0.008196296062504202
104.0	0.19	-0.008313009830332844
104.0	0.191	-0.008429649439180934
104.0	0.192	-0.008546196287286917
104.0	0.193	-0.008662633067182911
104.0	0.194	-0.008778943678790367
104.0	0.195	-0.008895113149022551
104.0	0.196	-0.00901112755708404
104.0	0.197	-0.00912697396514921
104.0	0.198	-0.009242640354040947
104.0	0.199	-0.009358115563343782
104.0	0.2	-0.009473389235889565
104.0	0.201	-0.00958845176597112
104.0	0.202	-0.009703294251226686
104.0	0.203	-0.009817908447803197
104.0	0.204	-0.009932286728596041
104.0	0.205	-0.010046422044341006
104.0	0.206	-0.010160307887295356
104.0	0.207	-0.01027393825734272
104.0	0.208	-0.010387307630438238
104.0	0.209	-0.010500410929021145
104.0	0.21	-0.010613243494428862
104.0	0.211	-0.010725801061145806
104.0	0.212	-0.01083807973263541
104.0	0.213	-0.010950075958804881
104.0	0.214	-0.011061786514835869
104.0	0.215	-0.011173208481459645
104.0	0.216	-0.011284339226379083
104.0	0.217	-0.011395176386904916
104.0	0.218	-0.011505717853692204
104.0	0.219	-0.011615961755437738
104.0	0.22	-0.011725906444533848
104.0	0.221	-0.011835550483668451
104.0	0.222	-0.011944892633124786
104.0	0.223	-0.01205393183900768
104.0	0.224	-0.012162667221919608
104.0	0.225	-0.012271098066669971
104.0	0.226	-0.012379223812281155
104.0	0.227	-0.012487044042814139
104.0	0.228	-0.012594558478513911
104.0	0.229	-0.012701766967733199
104.0	0.23	-0.012808669479121302
104.0	0.231	-0.012915266094357983
104.0	0.232	-0.013021557001296681
104.0	0.233	-0.013127542487466625
104.0	0.234	-0.013233222934105131
104.0	0.235	-0.013338598810190809
104.0	0.236	-0.013443670667236072
104.0	0.237	-0.013548439134033538
104.0	0.238	-0.0136529049119786
104.0	0.239	-0.013757068770359482
104.0	0.24	-0.013860931542137874
104.0	0.241	-0.013964494119977843
104.0	0.242	-0.014067757452217453
104.0	0.243	-0.014170722539441469
104.0	0.244	-0.014273390430981256
104.0	0.245	-0.014375762221694937
104.0	0.246	-0.014477839048909634
104.0	0.247	-0.014579622089574269
104.0	0.248	-0.014681112557496902
104.0	0.249	-0.014782311700810779
104.0	0.25	-0.01488322079946885
106.0	0.051	-0.004019584640106977
106.0	0.052	-0.004047031819888953
106.0	0.053	-0.004073391611411304
106.0	0.054	-0.004098663747397516
106.0	0.055	-0.004122847006482386
106.0	0.056	-0.0041459395651636715
106.0	0.057	-0.004167939338103636
106.0	0.058	-0.004188844310283692
106.0	0.059	-0.004208652864522027
106.0	0.06	-0.004227364106467243
106.0	0.061	-0.004244978188773587
106.0	0.062	-0.004261496635296139
106.0	0.063	-0.00427692266608634
106.0	0.064	-0.00429126152354088
106.0	0.065	-0.004304520799597122
106.0	0.066	-0.0043167107644589905
106.0	0.067	-0.0043278446965168485
106.0	0.068	-0.004337939214002463
106.0	0.069	-0.00434701460857948
106.0	0.07	-0.004355095181564368
106.0	0.071	-0.004362209583895443
106.0	0.072	-0.00436839116099509
106.0	0.073	-0.004373678304558168
106.0	0.074	-0.004378114813547689
106.0	0.075	-0.004381750267022706
106.0	0.076	-0.0043846404123612
106.0	0.077	-0.00438684757258439
106.0	0.078	-0.004388441077330375
106.0	0.079	-0.0043894977222761564
106.0	0.08	-0.004390102262482015
106.0	0.081	-0.004390347945722479
106.0	0.082	-0.0043903370919644085
106.0	0.083	-0.004390181725922834
106.0	0.084	-0.004390004269485009
106.0	0.085	-0.004389938301396796
106.0	0.086	-0.004390129391209953
106.0	0.087	-0.004390736014559211
106.0	0.088	-0.004391930555865693
106.0	0.089	-0.004393900404162409
106.0	0.09	-0.004396849145107296
106.0	0.091	-0.004400997850759764
106.0	0.092	-0.00440658646419423
106.0	0.093	-0.004413875270655347
106.0	0.094	-0.004423146440056873
106.0	0.095	-0.004434705613955429
106.0	0.096	-0.004448883496375641
106.0	0.097	-0.0044660373877837434
106.0	0.098	-0.0044865525748030155
106.0	0.099	-0.004510843452980679
106.0	0.1	-0.004539354213815122
106.0	0.101	-0.004572558867971289
106.0	0.102	-0.00461096030210732
106.0	0.103	-0.004655087976685257
106.0	0.104	-0.004705493767961747
106.0	0.105	-0.004762745345253739
106.0	0.106	-0.004827416370402442
106.0	0.107	-0.004900072737340574
106.0	0.108	-0.004981254083127369
106.0	0.109	-0.005071449966731059
106.0	0.11	-0.005171070518320468
106.0	0.111	-0.005280412106971924
106.0	0.112	-0.005399619717325475
106.0	0.113	-0.005528649230441141
106.0	0.114	-0.005667234432794799
106.0	0.115	-0.005814864855116811
106.0	0.116	-0.005970780774650648
106.0	0.117	-0.006133990249335796
106.0	0.118	-0.006303309677611624
106.0	0.119	-0.0060944440399538355
106.0	0.12	-0.005827371960540404
106.0	0.121	-0.005566935369974039
106.0	0.122	-0.005315117586595594
106.0	0.123	-0.0050737132230586806
106.0	0.124	-0.004844281081910978
106.0	0.125	-0.004628117396019499
106.0	0.126	-0.004426246848341221
106.0	0.127	-0.004239427425684493
106.0	0.128	-0.004068165029410082
106.0	0.129	-0.003912734359881202
106.0	0.13	-0.0037732034234090506
106.0	0.131	-0.0036494597740992845
106.0	0.132	-0.003541237178825827
106.0	0.133	-0.0034481417773050693
106.0	0.134	-0.003369677056071481
106.0	0.135	-0.003305267125650549
106.0	0.136	-0.0032542779240613507
106.0	0.137	-0.0032160360954310912
106.0	0.138	-0.00318984541012146
106.0	0.139	-0.003175000704029112
106.0	0.14	-0.0031707994108005153
106.0	0.141	-0.003176550837315172
106.0	0.142	-0.0031915833869167356
106.0	0.143	-0.003215249968047189
106.0	0.144	-0.003246931838197019
106.0	0.145	-0.0032860411314501493
106.0	0.146	-0.0033320223041223896
106.0	0.147	-0.003384352711568013
106.0	0.148	-0.0034425425048737347
106.0	0.149	-0.0035061340094993867
106.0	0.15	-0.0035747007220886225
106.0	0.151	-0.0036478460381061503
106.0	0.152	-0.003725201800761085
106.0	0.153	-0.0038064267435522054
106.0	0.154	-0.0038912048822168878
106.0	0.155	-0.003979243898970813
106.0	0.156	-0.004070273550588322
106.0	0.157	-0.004164044123307386
106.0	0.158	-0.004260324950406066
106.0	0.159	-0.004358903002865966
106.0	0.16	-0.004459581559038792
106.0	0.161	-0.004562178956496632
106.0	0.162	-0.004666527426291293
106.0	0.163	-0.004772472008459464
106.0	0.164	-0.004879869546256684
106.0	0.165	-0.004988587755777698
106.0	0.166	-0.005098504366988372
106.0	0.167	-0.005209506332095538
106.0	0.168	-0.0053214890968317635
106.0	0.169	-0.005434355930415826
106.0	0.17	-0.005548017309812186
106.0	0.171	-0.0056623903543155584
106.0	0.172	-0.005777398306551743
106.0	0.173	-0.005892970056007174
106.0	0.174	-0.006009039701910797
106.0	0.175	-0.006125546152133768
106.0	0.176	-0.006242432754803754
106.0	0.177	-0.006359646960427298
106.0	0.178	-0.006477140011511714
106.0	0.179	-0.006594866657466629
106.0	0.18	-0.0067127848927579425
106.0	0.181	-0.006830855716091181
106.0	0.182	-0.006949042909013606
106.0	0.183	-0.007067312832282568
106.0	0.184	-0.007185634238299069
106.0	0.185	-0.007303978098441781
106.0	0.186	-0.007422317443981203
106.0	0.187	-0.007540627219312734
106.0	0.188	-0.007658884146665533
106.0	0.189	-0.0077770666011724495
106.0	0.19	-0.00789515449548784
106.0	0.191	-0.008013129173205746
106.0	0.192	-0.00813097331024233
106.0	0.193	-0.00824867082370515
106.0	0.194	-0.008366206787416838
106.0	0.195	-0.008483567353734301
106.0	0.196	-0.00860073968110174
106.0	0.197	-0.008717711866841343
106.0	0.198	-0.008834472884791026
106.0	0.199	-0.008951012527459045
106.0	0.2	-0.009067321352228382
106.0	0.201	-0.00918339063138097
106.0	0.202	-0.009299212305686226
106.0	0.203	-0.009414778941151565
106.0	0.204	-0.00953008368871891
106.0	0.205	-0.00964512024691669
106.0	0.206	-0.009759882826792405
106.0	0.207	-0.009874366119461813
106.0	0.208	-0.009988565265701434
106.0	0.209	-0.010102475827600524
106.0	0.21	-0.01021609376207874
106.0	0.211	-0.010329415396252066
106.0	0.212	-0.010442437404226944
106.0	0.213	-0.010555156785558656
106.0	0.214	-0.010667570845062991
106.0	0.215	-0.01077967717386922
106.0	0.216	-0.010891473631761078
106.0	0.217	-0.011002958330551926
106.0	0.218	-0.011114129618643435
106.0	0.219	-0.011224986066357653
106.0	0.22	-0.011335526452360682
106.0	0.221	-0.011445749750887307
106.0	0.222	-0.01155565511959248
106.0	0.223	-0.01166524188844385
106.0	0.224	-0.011774509548996837
106.0	0.225	-0.011883457744565642
106.0	0.226	-0.01199208626066559
106.0	0.227	-0.012100395016558354
106.0	0.228	-0.012208384056696407
106.0	0.229	-0.012316053543046726
106.0	0.23	-0.012423403747822631
106.0	0.231	-0.012530435046571406
106.0	0.232	-0.012637147911695666
106.0	0.233	-0.012743542906330632
106.0	0.234	-0.012849620678651088
106.0	0.235	-0.01295538195642267
106.0	0.236	-0.013060827541938663
106.0	0.237	-0.013165958307153822
106.0	0.238	-0.013270775189209303
106.0	0.239	-0.013375279186147027
106.0	0.24	-0.0134794713528654
106.0	0.241	-0.01358335279731973
106.0	0.242	-0.013686924676975794
106.0	0.243	-0.013790188195359125
106.0	0.244	-0.013893144598910365
106.0	0.245	-0.013995795173986868
106.0	0.246	-0.014098141243949945
106.0	0.247	-0.01420018416655681
106.0	0.248	-0.014301925331333195
106.0	0.249	-0.014403366157283203
106.0	0.25	-0.014504508090537063
108.0	0.051	-0.003951804025407374
108.0	0.052	-0.003977838970537376
108.0	0.053	-0.004002779730840166
108.0	0.054	-0.004026624891663614
108.0	0.055	-0.004049372246075938
108.0	0.056	-0.004071019141909515
108.0	0.057	-0.004091562810813023
108.0	0.058	-0.004111000693865083
108.0	0.059	-0.0041293307621168
108.0	0.06	-0.0041465518356612555
108.0	0.061	-0.0041626639025687156
108.0	0.062	-0.004177668438294823
108.0	0.063	-0.004191568726204483
108.0	0.064	-0.004204370179757434
108.0	0.065	-0.004216080665800502
108.0	0.066	-0.004226710830374244
108.0	0.067	-0.004236274425964308
108.0	0.068	-0.004244788641362199
108.0	0.069	-0.004252274434399199
108.0	0.07	-0.0042587568686575615
108.0	0.071	-0.0042642654552461036
108.0	0.072	-0.004268834501515459
108.0	0.073	-0.004272503468826142
108.0	0.074	-0.004275317342151416
108.0	0.075	-0.004277327014689947
108.0	0.076	-0.004278589691538946
108.0	0.077	-0.0042791693166176715
108.0	0.078	-0.004279137028223833
108.0	0.079	-0.004278571648679126
108.0	0.08	-0.0042775602143834066
108.0	0.081	-0.004276198553340085
108.0	0.082	-0.004274591917484674
108.0	0.083	-0.0042728556778265595
108.0	0.084	-0.004271116091001813
108.0	0.085	-0.004269511145997701
108.0	0.086	-0.004268191500243344
108.0	0.087	-0.0042673215142141115
108.0	0.088	-0.004267080393315405
108.0	0.089	-0.0042676634454724945
108.0	0.09	-0.00426928346072675
108.0	0.091	-0.004272172217753811
108.0	0.092	-0.004276582117825133
108.0	0.093	-0.004282787941541793
108.0	0.094	-0.004291088715796551
108.0	0.095	-0.004301809666264707
108.0	0.096	-0.00431530421479841
108.0	0.097	-0.004331955957557911
108.0	0.098	-0.004352180527758003
108.0	0.099	-0.004376427203408018
108.0	0.1	-0.004405180061545055
108.0	0.101	-0.0044389584025673915
108.0	0.102	-0.004478316068120037
108.0	0.103	-0.004523839150028086
108.0	0.104	-0.004576141436753782
108.0	0.105	-0.004635856775511343
108.0	0.106	-0.0047036273612826975
108.0	0.107	-0.004780086840601107
108.0	0.108	-0.004865837109632703
108.0	0.109	-0.0049614179073387355
108.0	0.11	-0.005067268906978472
108.0	0.111	-0.005183685160668872
108.0	0.112	-0.005310768554465056
108.0	0.113	-0.005448380295507913
108.0	0.114	-0.005596101916485391
108.0	0.115	-0.005753213926400372
108.0	0.116	-0.005918700837341862
108.0	0.117	-0.006091287896476067
108.0	0.118	-0.005839430018971722
108.0	0.119	-0.005553917928568287
108.0	0.12	-0.005274178143741113
108.0	0.121	-0.005002505979894586
108.0	0.122	-0.004741000521431817
108.0	0.123	-0.004491502003874719
108.0	0.124	-0.004255556099884782
108.0	0.125	-0.0040344014488807745
108.0	0.126	-0.003828974625676958
108.0	0.127	-0.0036399267040797692
108.0	0.128	-0.003467646699970791
108.0	0.129	-0.0033122886162716097
108.0	0.13	-0.0031738000321371706
108.0	0.131	-0.0030519509998036105
108.0	0.132	-0.0029463624685587284
108.0	0.133	-0.002856533666861728