Variables="alpha" "beta" "omega"
Zone T="1" I=200 J=100
0.005	0.004	-1.0
0.005	0.008	-1.0
0.005	0.012	-1.0
0.005	0.016	-1.0
0.005	0.02	-1.0
0.005	0.024	-1.0
0.005	0.028	-1.0
0.005	0.032	-1.0
0.005	0.036	-1.0
0.005	0.04	-1.0
0.005	0.044	-1.0
0.005	0.048	-1.0
0.005	0.052	-1.0
0.005	0.056	-1.0
0.005	0.06	-1.0
0.005	0.064	-1.0
0.005	0.068	-1.0
0.005	0.072	-1.0
0.005	0.076	-1.0
0.005	0.08	-1.0
0.005	0.084	-1.0
0.005	0.088	-1.0
0.005	0.092	-1.0
0.005	0.096	-1.0
0.005	0.1	-1.0
0.005	0.104	-1.0
0.005	0.108	-1.0
0.005	0.112	-1.0
0.005	0.116	-1.0
0.005	0.12	-1.0
0.005	0.124	-1.0
0.005	0.128	-1.0
0.005	0.132	-1.0
0.005	0.136	-1.0
0.005	0.14	-1.0
0.005	0.144	-1.0
0.005	0.148	-1.0
0.005	0.152	-1.0
0.005	0.156	-1.0
0.005	0.16	-1.0
0.005	0.164	-1.0
0.005	0.168	-1.0
0.005	0.172	-1.0
0.005	0.176	-1.0
0.005	0.18	-1.0
0.005	0.184	-1.0
0.005	0.188	-1.0
0.005	0.192	-1.0
0.005	0.196	-1.0
0.005	0.2	-1.0
0.005	0.204	-1.0
0.005	0.208	-1.0
0.005	0.212	-1.0
0.005	0.216	-1.0
0.005	0.22	-1.0
0.005	0.224	-1.0
0.005	0.228	-1.0
0.005	0.232	-1.0
0.005	0.236	-1.0
0.005	0.24	-1.0
0.005	0.244	-1.0
0.005	0.248	-1.0
0.005	0.252	-1.0
0.005	0.256	-1.0
0.005	0.26	-1.0
0.005	0.264	-1.0
0.005	0.268	-1.0
0.005	0.272	-1.0
0.005	0.276	-1.0
0.005	0.28	-1.0
0.005	0.284	-1.0
0.005	0.288	-1.0
0.005	0.292	-1.0
0.005	0.296	-1.0
0.005	0.3	-1.0
0.005	0.304	-1.0
0.005	0.308	-1.0
0.005	0.312	-1.0
0.005	0.316	-1.0
0.005	0.32	-1.0
0.005	0.324	-1.0
0.005	0.328	-1.0
0.005	0.332	-1.0
0.005	0.336	-1.0
0.005	0.34	-1.0
0.005	0.344	-1.0
0.005	0.348	-1.0
0.005	0.352	-1.0
0.005	0.356	-1.0
0.005	0.36	-1.0
0.005	0.364	-1.0
0.005	0.368	-1.0
0.005	0.372	-1.0
0.005	0.376	-1.0
0.005	0.38	-1.0
0.005	0.384	-1.0
0.005	0.388	-1.0
0.005	0.392	-1.0
0.005	0.396	-1.0
0.005	0.4	-1.0
0.01	0.004	-1.0
0.01	0.008	-1.0
0.01	0.012	-1.0
0.01	0.016	-1.0
0.01	0.02	-1.0
0.01	0.024	-1.0
0.01	0.028	-1.0
0.01	0.032	-1.0
0.01	0.036	-1.0
0.01	0.04	-1.0
0.01	0.044	-1.0
0.01	0.048	-1.0
0.01	0.052	-1.0
0.01	0.056	-1.0
0.01	0.06	-1.0
0.01	0.064	-1.0
0.01	0.068	-1.0
0.01	0.072	-1.0
0.01	0.076	-1.0
0.01	0.08	-1.0
0.01	0.084	-1.0
0.01	0.088	-1.0
0.01	0.092	-1.0
0.01	0.096	-1.0
0.01	0.1	-1.0
0.01	0.104	-1.0
0.01	0.108	-1.0
0.01	0.112	-1.0
0.01	0.116	-1.0
0.01	0.12	-1.0
0.01	0.124	-1.0
0.01	0.128	-1.0
0.01	0.132	-1.0
0.01	0.136	-1.0
0.01	0.14	-1.0
0.01	0.144	-1.0
0.01	0.148	-1.0
0.01	0.152	-1.0
0.01	0.156	-1.0
0.01	0.16	-1.0
0.01	0.164	-1.0
0.01	0.168	-1.0
0.01	0.172	-1.0
0.01	0.176	-1.0
0.01	0.18	-1.0
0.01	0.184	-1.0
0.01	0.188	-1.0
0.01	0.192	-1.0
0.01	0.196	-1.0
0.01	0.2	-1.0
0.01	0.204	-1.0
0.01	0.208	-1.0
0.01	0.212	-1.0
0.01	0.216	-1.0
0.01	0.22	-1.0
0.01	0.224	-1.0
0.01	0.228	-1.0
0.01	0.232	-1.0
0.01	0.236	-1.0
0.01	0.24	-1.0
0.01	0.244	-1.0
0.01	0.248	-1.0
0.01	0.252	-1.0
0.01	0.256	-1.0
0.01	0.26	-1.0
0.01	0.264	-1.0
0.01	0.268	-1.0
0.01	0.272	-1.0
0.01	0.276	-1.0
0.01	0.28	-1.0
0.01	0.284	-1.0
0.01	0.288	-1.0
0.01	0.292	-1.0
0.01	0.296	-1.0
0.01	0.3	-1.0
0.01	0.304	-1.0
0.01	0.308	-1.0
0.01	0.312	-1.0
0.01	0.316	-1.0
0.01	0.32	-1.0
0.01	0.324	-1.0
0.01	0.328	-1.0
0.01	0.332	-1.0
0.01	0.336	-1.0
0.01	0.34	-1.0
0.01	0.344	-1.0
0.01	0.348	-1.0
0.01	0.352	-1.0
0.01	0.356	-1.0
0.01	0.36	-1.0
0.01	0.364	-1.0
0.01	0.368	-1.0
0.01	0.372	-1.0
0.01	0.376	-1.0
0.01	0.38	-1.0
0.01	0.384	-1.0
0.01	0.388	-1.0
0.01	0.392	-1.0
0.01	0.396	-1.0
0.01	0.4	-1.0
0.015	0.004	-1.0
0.015	0.008	-1.0
0.015	0.012	-1.0
0.015	0.016	-1.0
0.015	0.02	-1.0
0.015	0.024	-1.0
0.015	0.028	-1.0
0.015	0.032	-1.0
0.015	0.036	-1.0
0.015	0.04	-1.0
0.015	0.044	-1.0
0.015	0.048	-1.0
0.015	0.052	-1.0
0.015	0.056	-1.0
0.015	0.06	-1.0
0.015	0.064	-1.0
0.015	0.068	-1.0
0.015	0.072	-1.0
0.015	0.076	-1.0
0.015	0.08	-1.0
0.015	0.084	-1.0
0.015	0.088	-1.0
0.015	0.092	-1.0
0.015	0.096	-1.0
0.015	0.1	-1.0
0.015	0.104	-1.0
0.015	0.108	-1.0
0.015	0.112	-1.0
0.015	0.116	-1.0
0.015	0.12	-1.0
0.015	0.124	-1.0
0.015	0.128	-1.0
0.015	0.132	-1.0
0.015	0.136	-1.0
0.015	0.14	-1.0
0.015	0.144	-1.0
0.015	0.148	-1.0
0.015	0.152	-1.0
0.015	0.156	-1.0
0.015	0.16	-1.0
0.015	0.164	-1.0
0.015	0.168	-1.0
0.015	0.172	-1.0
0.015	0.176	-1.0
0.015	0.18	-1.0
0.015	0.184	-1.0
0.015	0.188	-1.0
0.015	0.192	-1.0
0.015	0.196	-1.0
0.015	0.2	-1.0
0.015	0.204	-1.0
0.015	0.208	-1.0
0.015	0.212	-1.0
0.015	0.216	-1.0
0.015	0.22	-1.0
0.015	0.224	-1.0
0.015	0.228	-1.0
0.015	0.232	-1.0
0.015	0.236	-1.0
0.015	0.24	-1.0
0.015	0.244	-1.0
0.015	0.248	-1.0
0.015	0.252	-1.0
0.015	0.256	-1.0
0.015	0.26	-1.0
0.015	0.264	-1.0
0.015	0.268	-1.0
0.015	0.272	-1.0
0.015	0.276	-1.0
0.015	0.28	-1.0
0.015	0.284	-1.0
0.015	0.288	-1.0
0.015	0.292	-1.0
0.015	0.296	-1.0
0.015	0.3	-1.0
0.015	0.304	-1.0
0.015	0.308	-1.0
0.015	0.312	-1.0
0.015	0.316	-1.0
0.015	0.32	-1.0
0.015	0.324	-1.0
0.015	0.328	-1.0
0.015	0.332	-1.0
0.015	0.336	-1.0
0.015	0.34	-1.0
0.015	0.344	-1.0
0.015	0.348	-1.0
0.015	0.352	-1.0
0.015	0.356	-1.0
0.015	0.36	-1.0
0.015	0.364	-1.0
0.015	0.368	-1.0
0.015	0.372	-1.0
0.015	0.376	-1.0
0.015	0.38	-1.0
0.015	0.384	-1.0
0.015	0.388	-1.0
0.015	0.392	-1.0
0.015	0.396	-1.0
0.015	0.4	-1.0
0.02	0.004	-1.0
0.02	0.008	-1.0
0.02	0.012	-1.0
0.02	0.016	-1.0
0.02	0.02	-1.0
0.02	0.024	-1.0
0.02	0.028	-1.0
0.02	0.032	-1.0
0.02	0.036	-1.0
0.02	0.04	-1.0
0.02	0.044	-1.0
0.02	0.048	-1.0
0.02	0.052	-1.0
0.02	0.056	-1.0
0.02	0.06	-1.0
0.02	0.064	-1.0
0.02	0.068	-1.0
0.02	0.072	-1.0
0.02	0.076	-1.0
0.02	0.08	-1.0
0.02	0.084	-1.0
0.02	0.088	-1.0
0.02	0.092	-1.0
0.02	0.096	-1.0
0.02	0.1	-1.0
0.02	0.104	-1.0
0.02	0.108	-1.0
0.02	0.112	-1.0
0.02	0.116	-1.0
0.02	0.12	-1.0
0.02	0.124	-1.0
0.02	0.128	-1.0
0.02	0.132	-1.0
0.02	0.136	-1.0
0.02	0.14	-1.0
0.02	0.144	-1.0
0.02	0.148	-1.0
0.02	0.152	-1.0
0.02	0.156	-1.0
0.02	0.16	-1.0
0.02	0.164	-1.0
0.02	0.168	-1.0
0.02	0.172	-1.0
0.02	0.176	-1.0
0.02	0.18	-1.0
0.02	0.184	-1.0
0.02	0.188	-1.0
0.02	0.192	-1.0
0.02	0.196	-1.0
0.02	0.2	-1.0
0.02	0.204	-1.0
0.02	0.208	-1.0
0.02	0.212	-1.0
0.02	0.216	-1.0
0.02	0.22	-1.0
0.02	0.224	-1.0
0.02	0.228	-1.0
0.02	0.232	-1.0
0.02	0.236	-1.0
0.02	0.24	-1.0
0.02	0.244	-1.0
0.02	0.248	-1.0
0.02	0.252	-1.0
0.02	0.256	-1.0
0.02	0.26	-1.0
0.02	0.264	-1.0
0.02	0.268	-1.0
0.02	0.272	-1.0
0.02	0.276	-1.0
0.02	0.28	-1.0
0.02	0.284	-1.0
0.02	0.288	-1.0
0.02	0.292	-1.0
0.02	0.296	-1.0
0.02	0.3	-1.0
0.02	0.304	-1.0
0.02	0.308	-1.0
0.02	0.312	-1.0
0.02	0.316	-1.0
0.02	0.32	-1.0
0.02	0.324	-1.0
0.02	0.328	-1.0
0.02	0.332	-1.0
0.02	0.336	-1.0
0.02	0.34	-1.0
0.02	0.344	-1.0
0.02	0.348	-1.0
0.02	0.352	-1.0
0.02	0.356	-1.0
0.02	0.36	-1.0
0.02	0.364	-1.0
0.02	0.368	-1.0
0.02	0.372	-1.0
0.02	0.376	-1.0
0.02	0.38	-1.0
0.02	0.384	-1.0
0.02	0.388	-1.0
0.02	0.392	-1.0
0.02	0.396	-1.0
0.02	0.4	-1.0
0.025	0.004	-1.0
0.025	0.008	-1.0
0.025	0.012	-1.0
0.025	0.016	-1.0
0.025	0.02	-1.0
0.025	0.024	-1.0
0.025	0.028	-1.0
0.025	0.032	-1.0
0.025	0.036	-1.0
0.025	0.04	-1.0
0.025	0.044	-1.0
0.025	0.048	-1.0
0.025	0.052	-1.0
0.025	0.056	-1.0
0.025	0.06	-1.0
0.025	0.064	-1.0
0.025	0.068	-1.0
0.025	0.072	-1.0
0.025	0.076	-1.0
0.025	0.08	-1.0
0.025	0.084	-1.0
0.025	0.088	-1.0
0.025	0.092	-1.0
0.025	0.096	-1.0
0.025	0.1	-1.0
0.025	0.104	-1.0
0.025	0.108	-1.0
0.025	0.112	-1.0
0.025	0.116	-1.0
0.025	0.12	-1.0
0.025	0.124	-1.0
0.025	0.128	-1.0
0.025	0.132	-1.0
0.025	0.136	-1.0
0.025	0.14	-1.0
0.025	0.144	-1.0
0.025	0.148	-1.0
0.025	0.152	-1.0
0.025	0.156	-1.0
0.025	0.16	-1.0
0.025	0.164	-1.0
0.025	0.168	-1.0
0.025	0.172	-1.0
0.025	0.176	-1.0
0.025	0.18	-1.0
0.025	0.184	-1.0
0.025	0.188	-1.0
0.025	0.192	-1.0
0.025	0.196	-1.0
0.025	0.2	-1.0
0.025	0.204	-1.0
0.025	0.208	-1.0
0.025	0.212	-1.0
0.025	0.216	-1.0
0.025	0.22	-1.0
0.025	0.224	-1.0
0.025	0.228	-1.0
0.025	0.232	-1.0
0.025	0.236	-1.0
0.025	0.24	-1.0
0.025	0.244	-1.0
0.025	0.248	-1.0
0.025	0.252	-1.0
0.025	0.256	-1.0
0.025	0.26	-1.0
0.025	0.264	-1.0
0.025	0.268	-1.0
0.025	0.272	-1.0
0.025	0.276	-1.0
0.025	0.28	-1.0
0.025	0.284	-1.0
0.025	0.288	-1.0
0.025	0.292	-1.0
0.025	0.296	-1.0
0.025	0.3	-1.0
0.025	0.304	-1.0
0.025	0.308	-1.0
0.025	0.312	-1.0
0.025	0.316	-1.0
0.025	0.32	-1.0
0.025	0.324	-1.0
0.025	0.328	-1.0
0.025	0.332	-1.0
0.025	0.336	-1.0
0.025	0.34	-1.0
0.025	0.344	-1.0
0.025	0.348	-1.0
0.025	0.352	-1.0
0.025	0.356	-1.0
0.025	0.36	-1.0
0.025	0.364	-1.0
0.025	0.368	-1.0
0.025	0.372	-1.0
0.025	0.376	-1.0
0.025	0.38	-1.0
0.025	0.384	-1.0
0.025	0.388	-1.0
0.025	0.392	-1.0
0.025	0.396	-1.0
0.025	0.4	-1.0
0.03	0.004	-1.0
0.03	0.008	-1.0
0.03	0.012	-1.0
0.03	0.016	-1.0
0.03	0.02	-1.0
0.03	0.024	-1.0
0.03	0.028	-1.0
0.03	0.032	-1.0
0.03	0.036	-1.0
0.03	0.04	-1.0
0.03	0.044	-1.0
0.03	0.048	-1.0
0.03	0.052	-1.0
0.03	0.056	-1.0
0.03	0.06	-1.0
0.03	0.064	-1.0
0.03	0.068	-1.0
0.03	0.072	-1.0
0.03	0.076	-1.0
0.03	0.08	-1.0
0.03	0.084	-1.0
0.03	0.088	-1.0
0.03	0.092	-1.0
0.03	0.096	-1.0
0.03	0.1	-1.0
0.03	0.104	-1.0
0.03	0.108	-1.0
0.03	0.112	-1.0
0.03	0.116	-1.0
0.03	0.12	-1.0
0.03	0.124	-1.0
0.03	0.128	-1.0
0.03	0.132	-1.0
0.03	0.136	-1.0
0.03	0.14	-1.0
0.03	0.144	-1.0
0.03	0.148	-1.0
0.03	0.152	-1.0
0.03	0.156	-1.0
0.03	0.16	-1.0
0.03	0.164	-1.0
0.03	0.168	-1.0
0.03	0.172	-1.0
0.03	0.176	-1.0
0.03	0.18	-1.0
0.03	0.184	-1.0
0.03	0.188	-1.0
0.03	0.192	-1.0
0.03	0.196	-1.0
0.03	0.2	-1.0
0.03	0.204	-1.0
0.03	0.208	-1.0
0.03	0.212	-1.0
0.03	0.216	-1.0
0.03	0.22	-1.0
0.03	0.224	-1.0
0.03	0.228	-1.0
0.03	0.232	-1.0
0.03	0.236	-1.0
0.03	0.24	-1.0
0.03	0.244	-1.0
0.03	0.248	-1.0
0.03	0.252	-1.0
0.03	0.256	-1.0
0.03	0.26	-1.0
0.03	0.264	-1.0
0.03	0.268	-1.0
0.03	0.272	-1.0
0.03	0.276	-1.0
0.03	0.28	-1.0
0.03	0.284	-1.0
0.03	0.288	-1.0
0.03	0.292	-1.0
0.03	0.296	-1.0
0.03	0.3	-1.0
0.03	0.304	-1.0
0.03	0.308	-1.0
0.03	0.312	-1.0
0.03	0.316	-1.0
0.03	0.32	-1.0
0.03	0.324	-1.0
0.03	0.328	-1.0
0.03	0.332	-1.0
0.03	0.336	-1.0
0.03	0.34	-1.0
0.03	0.344	-1.0
0.03	0.348	-1.0
0.03	0.352	-1.0
0.03	0.356	-1.0
0.03	0.36	-1.0
0.03	0.364	-1.0
0.03	0.368	-1.0
0.03	0.372	-1.0
0.03	0.376	-1.0
0.03	0.38	-1.0
0.03	0.384	-1.0
0.03	0.388	-1.0
0.03	0.392	-1.0
0.03	0.396	-1.0
0.03	0.4	-1.0
0.035	0.004	-1.0
0.035	0.008	-1.0
0.035	0.012	-1.0
0.035	0.016	-1.0
0.035	0.02	-1.0
0.035	0.024	-1.0
0.035	0.028	-1.0
0.035	0.032	-1.0
0.035	0.036	-1.0
0.035	0.04	-1.0
0.035	0.044	-1.0
0.035	0.048	-1.0
0.035	0.052	-1.0
0.035	0.056	-1.0
0.035	0.06	-1.0
0.035	0.064	-1.0
0.035	0.068	-1.0
0.035	0.072	-1.0
0.035	0.076	-1.0
0.035	0.08	-1.0
0.035	0.084	-1.0
0.035	0.088	-1.0
0.035	0.092	-1.0
0.035	0.096	-1.0
0.035	0.1	-1.0
0.035	0.104	-1.0
0.035	0.108	-1.0
0.035	0.112	-1.0
0.035	0.116	-1.0
0.035	0.12	-1.0
0.035	0.124	-1.0
0.035	0.128	-1.0
0.035	0.132	-1.0
0.035	0.136	-1.0
0.035	0.14	-1.0
0.035	0.144	-1.0
0.035	0.148	-1.0
0.035	0.152	-1.0
0.035	0.156	-1.0
0.035	0.16	-1.0
0.035	0.164	-1.0
0.035	0.168	-1.0
0.035	0.172	-1.0
0.035	0.176	-1.0
0.035	0.18	-1.0
0.035	0.184	-1.0
0.035	0.188	-1.0
0.035	0.192	-1.0
0.035	0.196	-1.0
0.035	0.2	-1.0
0.035	0.204	-1.0
0.035	0.208	-1.0
0.035	0.212	-1.0
0.035	0.216	-1.0
0.035	0.22	-1.0
0.035	0.224	-1.0
0.035	0.228	-1.0
0.035	0.232	-1.0
0.035	0.236	-1.0
0.035	0.24	-1.0
0.035	0.244	-1.0
0.035	0.248	-1.0
0.035	0.252	-1.0
0.035	0.256	-1.0
0.035	0.26	-1.0
0.035	0.264	-1.0
0.035	0.268	-1.0
0.035	0.272	-1.0
0.035	0.276	-1.0
0.035	0.28	-1.0
0.035	0.284	-1.0
0.035	0.288	-1.0
0.035	0.292	-1.0
0.035	0.296	-1.0
0.035	0.3	-1.0
0.035	0.304	-1.0
0.035	0.308	-1.0
0.035	0.312	-1.0
0.035	0.316	-1.0
0.035	0.32	-1.0
0.035	0.324	-1.0
0.035	0.328	-1.0
0.035	0.332	-1.0
0.035	0.336	-1.0
0.035	0.34	-1.0
0.035	0.344	-1.0
0.035	0.348	-1.0
0.035	0.352	-1.0
0.035	0.356	-1.0
0.035	0.36	-1.0
0.035	0.364	-1.0
0.035	0.368	-1.0
0.035	0.372	-1.0
0.035	0.376	-1.0
0.035	0.38	-1.0
0.035	0.384	-1.0
0.035	0.388	-1.0
0.035	0.392	-1.0
0.035	0.396	-1.0
0.035	0.4	-1.0
0.04	0.004	-1.0
0.04	0.008	-1.0
0.04	0.012	-1.0
0.04	0.016	-1.0
0.04	0.02	-1.0
0.04	0.024	-1.0
0.04	0.028	-1.0
0.04	0.032	-1.0
0.04	0.036	-1.0
0.04	0.04	-1.0
0.04	0.044	-1.0
0.04	0.048	-1.0
0.04	0.052	-1.0
0.04	0.056	-1.0
0.04	0.06	-1.0
0.04	0.064	-1.0
0.04	0.068	-1.0
0.04	0.072	-1.0
0.04	0.076	-1.0
0.04	0.08	-1.0
0.04	0.084	-1.0
0.04	0.088	-1.0
0.04	0.092	-1.0
0.04	0.096	-1.0
0.04	0.1	-1.0
0.04	0.104	-1.0
0.04	0.108	-1.0
0.04	0.112	-1.0
0.04	0.116	-1.0
0.04	0.12	-1.0
0.04	0.124	-1.0
0.04	0.128	-1.0
0.04	0.132	-1.0
0.04	0.136	-1.0
0.04	0.14	-1.0
0.04	0.144	-1.0
0.04	0.148	-1.0
0.04	0.152	-1.0
0.04	0.156	-1.0
0.04	0.16	-1.0
0.04	0.164	-1.0
0.04	0.168	-1.0
0.04	0.172	-1.0
0.04	0.176	-1.0
0.04	0.18	-1.0
0.04	0.184	-1.0
0.04	0.188	-1.0
0.04	0.192	-1.0
0.04	0.196	-1.0
0.04	0.2	-1.0
0.04	0.204	-1.0
0.04	0.208	-1.0
0.04	0.212	-1.0
0.04	0.216	-1.0
0.04	0.22	-1.0
0.04	0.224	-1.0
0.04	0.228	-1.0
0.04	0.232	-1.0
0.04	0.236	-1.0
0.04	0.24	-1.0
0.04	0.244	-1.0
0.04	0.248	-1.0
0.04	0.252	-1.0
0.04	0.256	-1.0
0.04	0.26	-1.0
0.04	0.264	-1.0
0.04	0.268	-1.0
0.04	0.272	-1.0
0.04	0.276	-1.0
0.04	0.28	-1.0
0.04	0.284	-1.0
0.04	0.288	-1.0
0.04	0.292	-1.0
0.04	0.296	-1.0
0.04	0.3	-1.0
0.04	0.304	-1.0
0.04	0.308	-1.0
0.04	0.312	-1.0
0.04	0.316	-1.0
0.04	0.32	-1.0
0.04	0.324	-1.0
0.04	0.328	-1.0
0.04	0.332	-1.0
0.04	0.336	-1.0
0.04	0.34	-1.0
0.04	0.344	-1.0
0.04	0.348	-1.0
0.04	0.352	-1.0
0.04	0.356	-1.0
0.04	0.36	-1.0
0.04	0.364	-1.0
0.04	0.368	-1.0
0.04	0.372	-1.0
0.04	0.376	-1.0
0.04	0.38	-1.0
0.04	0.384	-1.0
0.04	0.388	-1.0
0.04	0.392	-1.0
0.04	0.396	-1.0
0.04	0.4	-1.0
0.045	0.004	-1.0
0.045	0.008	-1.0
0.045	0.012	-1.0
0.045	0.016	-1.0
0.045	0.02	-1.0
0.045	0.024	-1.0
0.045	0.028	-1.0
0.045	0.032	-1.0
0.045	0.036	-1.0
0.045	0.04	-1.0
0.045	0.044	-1.0
0.045	0.048	-1.0
0.045	0.052	-1.0
0.045	0.056	-1.0
0.045	0.06	-1.0
0.045	0.064	-1.0
0.045	0.068	-1.0
0.045	0.072	-1.0
0.045	0.076	-1.0
0.045	0.08	-1.0
0.045	0.084	-1.0
0.045	0.088	-1.0
0.045	0.092	-1.0
0.045	0.096	-1.0
0.045	0.1	-1.0
0.045	0.104	-1.0
0.045	0.108	-1.0
0.045	0.112	-1.0
0.045	0.116	-1.0
0.045	0.12	-1.0
0.045	0.124	-1.0
0.045	0.128	-1.0
0.045	0.132	-1.0
0.045	0.136	-1.0
0.045	0.14	-1.0
0.045	0.144	-1.0
0.045	0.148	-1.0
0.045	0.152	-1.0
0.045	0.156	-1.0
0.045	0.16	-1.0
0.045	0.164	-1.0
0.045	0.168	-1.0
0.045	0.172	-1.0
0.045	0.176	-1.0
0.045	0.18	-1.0
0.045	0.184	-1.0
0.045	0.188	-1.0
0.045	0.192	-1.0
0.045	0.196	-1.0
0.045	0.2	-1.0
0.045	0.204	-1.0
0.045	0.208	-1.0
0.045	0.212	-1.0
0.045	0.216	-1.0
0.045	0.22	-1.0
0.045	0.224	-1.0
0.045	0.228	-1.0
0.045	0.232	-1.0
0.045	0.236	-1.0
0.045	0.24	-1.0
0.045	0.244	-1.0
0.045	0.248	-1.0
0.045	0.252	-1.0
0.045	0.256	-1.0
0.045	0.26	-1.0
0.045	0.264	-1.0
0.045	0.268	-1.0
0.045	0.272	-1.0
0.045	0.276	-1.0
0.045	0.28	-1.0
0.045	0.284	-1.0
0.045	0.288	-1.0
0.045	0.292	-1.0
0.045	0.296	-1.0
0.045	0.3	-1.0
0.045	0.304	-1.0
0.045	0.308	-1.0
0.045	0.312	-1.0
0.045	0.316	-1.0
0.045	0.32	-1.0
0.045	0.324	-1.0
0.045	0.328	-1.0
0.045	0.332	-1.0
0.045	0.336	-1.0
0.045	0.34	-1.0
0.045	0.344	-1.0
0.045	0.348	-1.0
0.045	0.352	-1.0
0.045	0.356	-1.0
0.045	0.36	-1.0
0.045	0.364	-1.0
0.045	0.368	-1.0
0.045	0.372	-1.0
0.045	0.376	-1.0
0.045	0.38	-1.0
0.045	0.384	-1.0
0.045	0.388	-1.0
0.045	0.392	-1.0
0.045	0.396	-1.0
0.045	0.4	-1.0
0.05	0.004	-1.0
0.05	0.008	-1.0
0.05	0.012	-1.0
0.05	0.016	-1.0
0.05	0.02	-1.0
0.05	0.024	-1.0
0.05	0.028	-1.0
0.05	0.032	-1.0
0.05	0.036	-1.0
0.05	0.04	-1.0
0.05	0.044	-1.0
0.05	0.048	-1.0
0.05	0.052	-1.0
0.05	0.056	-1.0
0.05	0.06	-1.0
0.05	0.064	-1.0
0.05	0.068	-1.0
0.05	0.072	-1.0
0.05	0.076	-1.0
0.05	0.08	-1.0
0.05	0.084	-1.0
0.05	0.088	-1.0
0.05	0.092	-1.0
0.05	0.096	-1.0
0.05	0.1	-1.0
0.05	0.104	-1.0
0.05	0.108	-1.0
0.05	0.112	-1.0
0.05	0.116	-1.0
0.05	0.12	-1.0
0.05	0.124	-1.0
0.05	0.128	-1.0
0.05	0.132	-1.0
0.05	0.136	-1.0
0.05	0.14	-1.0
0.05	0.144	-1.0
0.05	0.148	-1.0
0.05	0.152	-1.0
0.05	0.156	-1.0
0.05	0.16	-1.0
0.05	0.164	-1.0
0.05	0.168	-1.0
0.05	0.172	-1.0
0.05	0.176	-1.0
0.05	0.18	-1.0
0.05	0.184	-1.0
0.05	0.188	-1.0
0.05	0.192	-1.0
0.05	0.196	-1.0
0.05	0.2	-1.0
0.05	0.204	-1.0
0.05	0.208	-1.0
0.05	0.212	-1.0
0.05	0.216	-1.0
0.05	0.22	-1.0
0.05	0.224	-1.0
0.05	0.228	-1.0
0.05	0.232	-1.0
0.05	0.236	-1.0
0.05	0.24	-1.0
0.05	0.244	-1.0
0.05	0.248	-1.0
0.05	0.252	-1.0
0.05	0.256	-1.0
0.05	0.26	-1.0
0.05	0.264	-1.0
0.05	0.268	-1.0
0.05	0.272	-1.0
0.05	0.276	-1.0
0.05	0.28	-1.0
0.05	0.284	-1.0
0.05	0.288	-1.0
0.05	0.292	-1.0
0.05	0.296	-1.0
0.05	0.3	-1.0
0.05	0.304	-1.0
0.05	0.308	-1.0
0.05	0.312	-1.0
0.05	0.316	-1.0
0.05	0.32	-1.0
0.05	0.324	-1.0
0.05	0.328	-1.0
0.05	0.332	-1.0
0.05	0.336	-1.0
0.05	0.34	-1.0
0.05	0.344	-1.0
0.05	0.348	-1.0
0.05	0.352	-1.0
0.05	0.356	-1.0
0.05	0.36	-1.0
0.05	0.364	-1.0
0.05	0.368	-1.0
0.05	0.372	-1.0
0.05	0.376	-1.0
0.05	0.38	-1.0
0.05	0.384	-1.0
0.05	0.388	-1.0
0.05	0.392	-1.0
0.05	0.396	-1.0
0.05	0.4	-1.0
0.055	0.004	-1.0
0.055	0.008	-1.0
0.055	0.012	-1.0
0.055	0.016	-1.0
0.055	0.02	-1.0
0.055	0.024	-1.0
0.055	0.028	-1.0
0.055	0.032	-1.0
0.055	0.036	-1.0
0.055	0.04	-1.0
0.055	0.044	-1.0
0.055	0.048	-1.0
0.055	0.052	-1.0
0.055	0.056	-1.0
0.055	0.06	-1.0
0.055	0.064	-1.0
0.055	0.068	-1.0
0.055	0.072	-1.0
0.055	0.076	-1.0
0.055	0.08	-1.0
0.055	0.084	-1.0
0.055	0.088	-1.0
0.055	0.092	-1.0
0.055	0.096	-1.0
0.055	0.1	-1.0
0.055	0.104	-1.0
0.055	0.108	-1.0
0.055	0.112	-1.0
0.055	0.116	-1.0
0.055	0.12	-1.0
0.055	0.124	-1.0
0.055	0.128	-1.0
0.055	0.132	-1.0
0.055	0.136	-1.0
0.055	0.14	-1.0
0.055	0.144	-1.0
0.055	0.148	-1.0
0.055	0.152	-1.0
0.055	0.156	-1.0
0.055	0.16	-1.0
0.055	0.164	-1.0
0.055	0.168	-1.0
0.055	0.172	-1.0
0.055	0.176	-1.0
0.055	0.18	-1.0
0.055	0.184	-1.0
0.055	0.188	-1.0
0.055	0.192	-1.0
0.055	0.196	-1.0
0.055	0.2	-1.0
0.055	0.204	-1.0
0.055	0.208	-1.0
0.055	0.212	-1.0
0.055	0.216	-1.0
0.055	0.22	-1.0
0.055	0.224	-1.0
0.055	0.228	-1.0
0.055	0.232	-1.0
0.055	0.236	-1.0
0.055	0.24	-1.0
0.055	0.244	-1.0
0.055	0.248	-1.0
0.055	0.252	-1.0
0.055	0.256	-1.0
0.055	0.26	-1.0
0.055	0.264	-1.0
0.055	0.268	-1.0
0.055	0.272	-1.0
0.055	0.276	-1.0
0.055	0.28	-1.0
0.055	0.284	-1.0
0.055	0.288	-1.0
0.055	0.292	-1.0
0.055	0.296	-1.0
0.055	0.3	-1.0
0.055	0.304	-1.0
0.055	0.308	-1.0
0.055	0.312	-1.0
0.055	0.316	-1.0
0.055	0.32	-1.0
0.055	0.324	-1.0
0.055	0.328	-1.0
0.055	0.332	-1.0
0.055	0.336	-1.0
0.055	0.34	-1.0
0.055	0.344	-1.0
0.055	0.348	-1.0
0.055	0.352	-1.0
0.055	0.356	-1.0
0.055	0.36	-1.0
0.055	0.364	-1.0
0.055	0.368	-1.0
0.055	0.372	-1.0
0.055	0.376	-1.0
0.055	0.38	-1.0
0.055	0.384	-1.0
0.055	0.388	-1.0
0.055	0.392	-1.0
0.055	0.396	-1.0
0.055	0.4	-1.0
0.06	0.004	-1.0
0.06	0.008	-1.0
0.06	0.012	-1.0
0.06	0.016	-1.0
0.06	0.02	-1.0
0.06	0.024	-1.0
0.06	0.028	-1.0
0.06	0.032	-1.0
0.06	0.036	-1.0
0.06	0.04	-1.0
0.06	0.044	-1.0
0.06	0.048	-1.0
0.06	0.052	-1.0
0.06	0.056	-1.0
0.06	0.06	-1.0
0.06	0.064	-1.0
0.06	0.068	-1.0
0.06	0.072	-1.0
0.06	0.076	-1.0
0.06	0.08	-1.0
0.06	0.084	-1.0
0.06	0.088	-1.0
0.06	0.092	-1.0
0.06	0.096	-1.0
0.06	0.1	-1.0
0.06	0.104	-1.0
0.06	0.108	-1.0
0.06	0.112	-1.0
0.06	0.116	-1.0
0.06	0.12	-1.0
0.06	0.124	-1.0
0.06	0.128	-1.0
0.06	0.132	-1.0
0.06	0.136	-1.0
0.06	0.14	-1.0
0.06	0.144	-1.0
0.06	0.148	-1.0
0.06	0.152	-1.0
0.06	0.156	-1.0
0.06	0.16	-1.0
0.06	0.164	-1.0
0.06	0.168	-1.0
0.06	0.172	-1.0
0.06	0.176	-1.0
0.06	0.18	-1.0
0.06	0.184	-1.0
0.06	0.188	-1.0
0.06	0.192	-1.0
0.06	0.196	-1.0
0.06	0.2	-1.0
0.06	0.204	-1.0
0.06	0.208	-1.0
0.06	0.212	-1.0
0.06	0.216	-1.0
0.06	0.22	-1.0
0.06	0.224	-1.0
0.06	0.228	-1.0
0.06	0.232	-1.0
0.06	0.236	-1.0
0.06	0.24	-1.0
0.06	0.244	-1.0
0.06	0.248	-1.0
0.06	0.252	-1.0
0.06	0.256	-1.0
0.06	0.26	-1.0
0.06	0.264	-1.0
0.06	0.268	-1.0
0.06	0.272	-1.0
0.06	0.276	-1.0
0.06	0.28	-1.0
0.06	0.284	-1.0
0.06	0.288	-1.0
0.06	0.292	-1.0
0.06	0.296	-1.0
0.06	0.3	-1.0
0.06	0.304	-1.0
0.06	0.308	-1.0
0.06	0.312	-1.0
0.06	0.316	-1.0
0.06	0.32	-1.0
0.06	0.324	-1.0
0.06	0.328	-1.0
0.06	0.332	-1.0
0.06	0.336	-1.0
0.06	0.34	-1.0
0.06	0.344	-1.0
0.06	0.348	-1.0
0.06	0.352	-1.0
0.06	0.356	-1.0
0.06	0.36	-1.0
0.06	0.364	-1.0
0.06	0.368	-1.0
0.06	0.372	-1.0
0.06	0.376	-1.0
0.06	0.38	-1.0
0.06	0.384	-1.0
0.06	0.388	-1.0
0.06	0.392	-1.0
0.06	0.396	-1.0
0.06	0.4	-1.0
0.065	0.004	-1.0
0.065	0.008	-1.0
0.065	0.012	-1.0
0.065	0.016	-1.0
0.065	0.02	-1.0
0.065	0.024	-1.0
0.065	0.028	-1.0
0.065	0.032	-1.0
0.065	0.036	-1.0
0.065	0.04	-1.0
0.065	0.044	-1.0
0.065	0.048	-1.0
0.065	0.052	-1.0
0.065	0.056	-1.0
0.065	0.06	-1.0
0.065	0.064	-1.0
0.065	0.068	-1.0
0.065	0.072	-1.0
0.065	0.076	-1.0
0.065	0.08	-1.0
0.065	0.084	-1.0
0.065	0.088	-1.0
0.065	0.092	-1.0
0.065	0.096	-1.0
0.065	0.1	-1.0
0.065	0.104	-1.0
0.065	0.108	-1.0
0.065	0.112	-1.0
0.065	0.116	-1.0
0.065	0.12	-1.0
0.065	0.124	-1.0
0.065	0.128	-1.0
0.065	0.132	-1.0
0.065	0.136	-1.0
0.065	0.14	-1.0
0.065	0.144	-1.0
0.065	0.148	-1.0
0.065	0.152	-1.0
0.065	0.156	-1.0
0.065	0.16	-1.0
0.065	0.164	-1.0
0.065	0.168	-1.0
0.065	0.172	-1.0
0.065	0.176	-1.0
0.065	0.18	-1.0
0.065	0.184	-1.0
0.065	0.188	-1.0
0.065	0.192	-1.0
0.065	0.196	-1.0
0.065	0.2	-1.0
0.065	0.204	-1.0
0.065	0.208	-1.0
0.065	0.212	-1.0
0.065	0.216	-1.0
0.065	0.22	-1.0
0.065	0.224	-1.0
0.065	0.228	-1.0
0.065	0.232	-1.0
0.065	0.236	-1.0
0.065	0.24	-1.0
0.065	0.244	-1.0
0.065	0.248	-1.0
0.065	0.252	-1.0
0.065	0.256	-1.0
0.065	0.26	-1.0
0.065	0.264	-1.0
0.065	0.268	-1.0
0.065	0.272	-1.0
0.065	0.276	-1.0
0.065	0.28	-1.0
0.065	0.284	-1.0
0.065	0.288	-1.0
0.065	0.292	-1.0
0.065	0.296	-1.0
0.065	0.3	-1.0
0.065	0.304	-1.0
0.065	0.308	-1.0
0.065	0.312	-1.0
0.065	0.316	-1.0
0.065	0.32	-1.0
0.065	0.324	-1.0
0.065	0.328	-1.0
0.065	0.332	-1.0
0.065	0.336	-1.0
0.065	0.34	-1.0
0.065	0.344	-1.0
0.065	0.348	-1.0
0.065	0.352	-1.0
0.065	0.356	-1.0
0.065	0.36	-1.0
0.065	0.364	-1.0
0.065	0.368	-1.0
0.065	0.372	-1.0
0.065	0.376	-1.0
0.065	0.38	-1.0
0.065	0.384	-1.0
0.065	0.388	-1.0
0.065	0.392	-1.0
0.065	0.396	-1.0
0.065	0.4	-1.0
0.07	0.004	-1.0
0.07	0.008	-1.0
0.07	0.012	-1.0
0.07	0.016	-1.0
0.07	0.02	-1.0
0.07	0.024	-1.0
0.07	0.028	-1.0
0.07	0.032	-1.0
0.07	0.036	-1.0
0.07	0.04	-1.0
0.07	0.044	-1.0
0.07	0.048	-1.0
0.07	0.052	-1.0
0.07	0.056	-1.0
0.07	0.06	-1.0
0.07	0.064	-1.0
0.07	0.068	-1.0
0.07	0.072	-1.0
0.07	0.076	-1.0
0.07	0.08	-1.0
0.07	0.084	-1.0
0.07	0.088	-1.0
0.07	0.092	-1.0
0.07	0.096	-1.0
0.07	0.1	-1.0
0.07	0.104	-1.0
0.07	0.108	-1.0
0.07	0.112	-1.0
0.07	0.116	-1.0
0.07	0.12	-1.0
0.07	0.124	-1.0
0.07	0.128	-1.0
0.07	0.132	-1.0
0.07	0.136	-1.0
0.07	0.14	-1.0
0.07	0.144	-1.0
0.07	0.148	-1.0
0.07	0.152	-1.0
0.07	0.156	-1.0
0.07	0.16	-1.0
0.07	0.164	-1.0
0.07	0.168	-1.0
0.07	0.172	-1.0
0.07	0.176	-1.0
0.07	0.18	-1.0
0.07	0.184	-1.0
0.07	0.188	-1.0
0.07	0.192	-1.0
0.07	0.196	-1.0
0.07	0.2	-1.0
0.07	0.204	-1.0
0.07	0.208	-1.0
0.07	0.212	-1.0
0.07	0.216	-1.0
0.07	0.22	-1.0
0.07	0.224	-1.0
0.07	0.228	-1.0
0.07	0.232	-1.0
0.07	0.236	-1.0
0.07	0.24	-1.0
0.07	0.244	-1.0
0.07	0.248	-1.0
0.07	0.252	-1.0
0.07	0.256	-1.0
0.07	0.26	-1.0
0.07	0.264	-1.0
0.07	0.268	-1.0
0.07	0.272	-1.0
0.07	0.276	-1.0
0.07	0.28	-1.0
0.07	0.284	-1.0
0.07	0.288	-1.0
0.07	0.292	-1.0
0.07	0.296	-1.0
0.07	0.3	-1.0
0.07	0.304	-1.0
0.07	0.308	-1.0
0.07	0.312	-1.0
0.07	0.316	-1.0
0.07	0.32	-1.0
0.07	0.324	-1.0
0.07	0.328	-1.0
0.07	0.332	-1.0
0.07	0.336	-1.0
0.07	0.34	-1.0
0.07	0.344	-1.0
0.07	0.348	-1.0
0.07	0.352	-1.0
0.07	0.356	-1.0
0.07	0.36	-1.0
0.07	0.364	-1.0
0.07	0.368	-1.0
0.07	0.372	-1.0
0.07	0.376	-1.0
0.07	0.38	-1.0
0.07	0.384	-1.0
0.07	0.388	-1.0
0.07	0.392	-1.0
0.07	0.396	-1.0
0.07	0.4	-1.0
0.075	0.004	0.0002580692957600738
0.075	0.008	-1.0
0.075	0.012	-1.0
0.075	0.016	-1.0
0.075	0.02	-1.0
0.075	0.024	-1.0
0.075	0.028	-1.0
0.075	0.032	-1.0
0.075	0.036	-1.0
0.075	0.04	-1.0
0.075	0.044	-1.0
0.075	0.048	-1.0
0.075	0.052	-1.0
0.075	0.056	-1.0
0.075	0.06	-1.0
0.075	0.064	-1.0
0.075	0.068	-1.0
0.075	0.072	-1.0
0.075	0.076	-1.0
0.075	0.08	-1.0
0.075	0.084	-1.0
0.075	0.088	-1.0
0.075	0.092	-1.0
0.075	0.096	-1.0
0.075	0.1	-1.0
0.075	0.104	-1.0
0.075	0.108	-1.0
0.075	0.112	-1.0
0.075	0.116	-1.0
0.075	0.12	-1.0
0.075	0.124	-1.0
0.075	0.128	-1.0
0.075	0.132	-1.0
0.075	0.136	-1.0
0.075	0.14	-1.0
0.075	0.144	-1.0
0.075	0.148	-1.0
0.075	0.152	-1.0
0.075	0.156	-1.0
0.075	0.16	-1.0
0.075	0.164	-1.0
0.075	0.168	-1.0
0.075	0.172	-1.0
0.075	0.176	-1.0
0.075	0.18	-1.0
0.075	0.184	-1.0
0.075	0.188	-1.0
0.075	0.192	-1.0
0.075	0.196	-1.0
0.075	0.2	-1.0
0.075	0.204	-1.0
0.075	0.208	-1.0
0.075	0.212	-1.0
0.075	0.216	-1.0
0.075	0.22	-1.0
0.075	0.224	-1.0
0.075	0.228	-1.0
0.075	0.232	-1.0
0.075	0.236	-1.0
0.075	0.24	-1.0
0.075	0.244	-1.0
0.075	0.248	-1.0
0.075	0.252	-1.0
0.075	0.256	-1.0
0.075	0.26	-1.0
0.075	0.264	-1.0
0.075	0.268	-1.0
0.075	0.272	-1.0
0.075	0.276	-1.0
0.075	0.28	-1.0
0.075	0.284	-1.0
0.075	0.288	-1.0
0.075	0.292	-1.0
0.075	0.296	-1.0
0.075	0.3	-1.0
0.075	0.304	-1.0
0.075	0.308	-1.0
0.075	0.312	-1.0
0.075	0.316	-1.0
0.075	0.32	-1.0
0.075	0.324	-1.0
0.075	0.328	-1.0
0.075	0.332	-1.0
0.075	0.336	-1.0
0.075	0.34	-1.0
0.075	0.344	-1.0
0.075	0.348	-1.0
0.075	0.352	-1.0
0.075	0.356	-1.0
0.075	0.36	-1.0
0.075	0.364	-1.0
0.075	0.368	-1.0
0.075	0.372	-1.0
0.075	0.376	-1.0
0.075	0.38	-1.0
0.075	0.384	-1.0
0.075	0.388	-1.0
0.075	0.392	-1.0
0.075	0.396	-1.0
0.075	0.4	-1.0
0.08	0.004	0.0005859384464175634
0.08	0.008	0.00012632342972446667
0.08	0.012	-1.0
0.08	0.016	-1.0
0.08	0.02	-1.0
0.08	0.024	-1.0
0.08	0.028	-1.0
0.08	0.032	-1.0
0.08	0.036	-1.0
0.08	0.04	-1.0
0.08	0.044	-1.0
0.08	0.048	-1.0
0.08	0.052	-1.0
0.08	0.056	-1.0
0.08	0.06	-1.0
0.08	0.064	-1.0
0.08	0.068	-1.0
0.08	0.072	-1.0
0.08	0.076	-1.0
0.08	0.08	-1.0
0.08	0.084	-1.0
0.08	0.088	-1.0
0.08	0.092	-1.0
0.08	0.096	-1.0
0.08	0.1	-1.0
0.08	0.104	-1.0
0.08	0.108	-1.0
0.08	0.112	-1.0
0.08	0.116	-1.0
0.08	0.12	-1.0
0.08	0.124	-1.0
0.08	0.128	-1.0
0.08	0.132	-1.0
0.08	0.136	-1.0
0.08	0.14	-1.0
0.08	0.144	-1.0
0.08	0.148	-1.0
0.08	0.152	-1.0
0.08	0.156	-1.0
0.08	0.16	-1.0
0.08	0.164	-1.0
0.08	0.168	-1.0
0.08	0.172	-1.0
0.08	0.176	-1.0
0.08	0.18	-1.0
0.08	0.184	-1.0
0.08	0.188	-1.0
0.08	0.192	-1.0
0.08	0.196	-1.0
0.08	0.2	-1.0
0.08	0.204	-1.0
0.08	0.208	-1.0
0.08	0.212	-1.0
0.08	0.216	-1.0
0.08	0.22	-1.0
0.08	0.224	-1.0
0.08	0.228	-1.0
0.08	0.232	-1.0
0.08	0.236	-1.0
0.08	0.24	-1.0
0.08	0.244	-1.0
0.08	0.248	-1.0
0.08	0.252	-1.0
0.08	0.256	-1.0
0.08	0.26	-1.0
0.08	0.264	-1.0
0.08	0.268	-1.0
0.08	0.272	-1.0
0.08	0.276	-1.0
0.08	0.28	-1.0
0.08	0.284	-1.0
0.08	0.288	-1.0
0.08	0.292	-1.0
0.08	0.296	-1.0
0.08	0.3	-1.0
0.08	0.304	-1.0
0.08	0.308	-1.0
0.08	0.312	-1.0
0.08	0.316	-1.0
0.08	0.32	-1.0
0.08	0.324	-1.0
0.08	0.328	-1.0
0.08	0.332	-1.0
0.08	0.336	-1.0
0.08	0.34	-1.0
0.08	0.344	-1.0
0.08	0.348	-1.0
0.08	0.352	-1.0
0.08	0.356	-1.0
0.08	0.36	-1.0
0.08	0.364	-1.0
0.08	0.368	-1.0
0.08	0.372	-1.0
0.08	0.376	-1.0
0.08	0.38	-1.0
0.08	0.384	-1.0
0.08	0.388	-1.0
0.08	0.392	-1.0
0.08	0.396	-1.0
0.08	0.4	-1.0
0.085	0.004	0.0009082201507525925
0.085	0.008	0.0004704824014013236
0.085	0.012	-1.0
0.085	0.016	-1.0
0.085	0.02	-1.0
0.085	0.024	-1.0
0.085	0.028	-1.0
0.085	0.032	-1.0
0.085	0.036	-1.0
0.085	0.04	-1.0
0.085	0.044	-1.0
0.085	0.048	-1.0
0.085	0.052	-1.0
0.085	0.056	-1.0
0.085	0.06	-1.0
0.085	0.064	-1.0
0.085	0.068	-1.0
0.085	0.072	-1.0
0.085	0.076	-1.0
0.085	0.08	-1.0
0.085	0.084	-1.0
0.085	0.088	-1.0
0.085	0.092	-1.0
0.085	0.096	-1.0
0.085	0.1	-1.0
0.085	0.104	-1.0
0.085	0.108	-1.0
0.085	0.112	-1.0
0.085	0.116	-1.0
0.085	0.12	-1.0
0.085	0.124	-1.0
0.085	0.128	-1.0
0.085	0.132	-1.0
0.085	0.136	-1.0
0.085	0.14	-1.0
0.085	0.144	-1.0
0.085	0.148	-1.0
0.085	0.152	-1.0
0.085	0.156	-1.0
0.085	0.16	-1.0
0.085	0.164	-1.0
0.085	0.168	-1.0
0.085	0.172	-1.0
0.085	0.176	-1.0
0.085	0.18	-1.0
0.085	0.184	-1.0
0.085	0.188	-1.0
0.085	0.192	-1.0
0.085	0.196	-1.0
0.085	0.2	-1.0
0.085	0.204	-1.0
0.085	0.208	-1.0
0.085	0.212	-1.0
0.085	0.216	-1.0
0.085	0.22	-1.0
0.085	0.224	-1.0
0.085	0.228	-1.0
0.085	0.232	-1.0
0.085	0.236	-1.0
0.085	0.24	-1.0
0.085	0.244	-1.0
0.085	0.248	-1.0
0.085	0.252	-1.0
0.085	0.256	-1.0
0.085	0.26	-1.0
0.085	0.264	-1.0
0.085	0.268	-1.0
0.085	0.272	-1.0
0.085	0.276	-1.0
0.085	0.28	-1.0
0.085	0.284	-1.0
0.085	0.288	-1.0
0.085	0.292	-1.0
0.085	0.296	-1.0
0.085	0.3	-1.0
0.085	0.304	-1.0
0.085	0.308	-1.0
0.085	0.312	-1.0
0.085	0.316	-1.0
0.085	0.32	-1.0
0.085	0.324	-1.0
0.085	0.328	-1.0
0.085	0.332	-1.0
0.085	0.336	-1.0
0.085	0.34	-1.0
0.085	0.344	-1.0
0.085	0.348	-1.0
0.085	0.352	-1.0
0.085	0.356	-1.0
0.085	0.36	-1.0
0.085	0.364	-1.0
0.085	0.368	-1.0
0.085	0.372	-1.0
0.085	0.376	-1.0
0.085	0.38	-1.0
0.085	0.384	-1.0
0.085	0.388	-1.0
0.085	0.392	-1.0
0.085	0.396	-1.0
0.085	0.4	-1.0
0.09	0.004	0.0012245454173592163
0.09	0.008	0.0008070988311194079
0.09	0.012	0.000359750927948053
0.09	0.016	-1.0
0.09	0.02	-1.0
0.09	0.024	-1.0
0.09	0.028	-1.0
0.09	0.032	-1.0
0.09	0.036	-1.0
0.09	0.04	-1.0
0.09	0.044	-1.0
0.09	0.048	-1.0
0.09	0.052	-1.0
0.09	0.056	-1.0
0.09	0.06	-1.0
0.09	0.064	-1.0
0.09	0.068	-1.0
0.09	0.072	-1.0
0.09	0.076	-1.0
0.09	0.08	-1.0
0.09	0.084	-1.0
0.09	0.088	-1.0
0.09	0.092	-1.0
0.09	0.096	-1.0
0.09	0.1	-1.0
0.09	0.104	-1.0
0.09	0.108	-1.0
0.09	0.112	-1.0
0.09	0.116	-1.0
0.09	0.12	-1.0
0.09	0.124	-1.0
0.09	0.128	-1.0
0.09	0.132	-1.0
0.09	0.136	-1.0
0.09	0.14	-1.0
0.09	0.144	-1.0
0.09	0.148	-1.0
0.09	0.152	-1.0
0.09	0.156	-1.0
0.09	0.16	-1.0
0.09	0.164	-1.0
0.09	0.168	-1.0
0.09	0.172	-1.0
0.09	0.176	-1.0
0.09	0.18	-1.0
0.09	0.184	-1.0
0.09	0.188	-1.0
0.09	0.192	-1.0
0.09	0.196	-1.0
0.09	0.2	-1.0
0.09	0.204	-1.0
0.09	0.208	-1.0
0.09	0.212	-1.0
0.09	0.216	-1.0
0.09	0.22	-1.0
0.09	0.224	-1.0
0.09	0.228	-1.0
0.09	0.232	-1.0
0.09	0.236	-1.0
0.09	0.24	-1.0
0.09	0.244	-1.0
0.09	0.248	-1.0
0.09	0.252	-1.0
0.09	0.256	-1.0
0.09	0.26	-1.0
0.09	0.264	-1.0
0.09	0.268	-1.0
0.09	0.272	-1.0
0.09	0.276	-1.0
0.09	0.28	-1.0
0.09	0.284	-1.0
0.09	0.288	-1.0
0.09	0.292	-1.0
0.09	0.296	-1.0
0.09	0.3	-1.0
0.09	0.304	-1.0
0.09	0.308	-1.0
0.09	0.312	-1.0
0.09	0.316	-1.0
0.09	0.32	-1.0
0.09	0.324	-1.0
0.09	0.328	-1.0
0.09	0.332	-1.0
0.09	0.336	-1.0
0.09	0.34	-1.0
0.09	0.344	-1.0
0.09	0.348	-1.0
0.09	0.352	-1.0
0.09	0.356	-1.0
0.09	0.36	-1.0
0.09	0.364	-1.0
0.09	0.368	-1.0
0.09	0.372	-1.0
0.09	0.376	-1.0
0.09	0.38	-1.0
0.09	0.384	-1.0
0.09	0.388	-1.0
0.09	0.392	-1.0
0.09	0.396	-1.0
0.09	0.4	-1.0
0.095	0.004	0.0015346328966516927
0.095	0.008	0.0011360577212544398
0.095	0.012	0.0007087429802703949
0.095	0.016	0.00025489376900455086
0.095	0.02	-1.0
0.095	0.024	-1.0
0.095	0.028	-1.0
0.095	0.032	-1.0
0.095	0.036	-1.0
0.095	0.04	-1.0
0.095	0.044	-1.0
0.095	0.048	-1.0
0.095	0.052	-1.0
0.095	0.056	-1.0
0.095	0.06	-1.0
0.095	0.064	-1.0
0.095	0.068	-1.0
0.095	0.072	-1.0
0.095	0.076	-1.0
0.095	0.08	-1.0
0.095	0.084	-1.0
0.095	0.088	-1.0
0.095	0.092	-1.0
0.095	0.096	-1.0
0.095	0.1	-1.0
0.095	0.104	-1.0
0.095	0.108	-1.0
0.095	0.112	-1.0