Variables="alpha" "beta" "omega"
Zone T="R=500s" I=200 J=101
100.0	0.051	-0.004234262924563032
100.0	0.052	-0.004266287602756473
100.0	0.053	-0.0042972398036116655
100.0	0.054	-0.00432712337025438
100.0	0.055	-0.004355940603012979
100.0	0.056	-0.004383692649281849
100.0	0.057	-0.004410379875205747
100.0	0.058	-0.004436002228273842
100.0	0.059	-0.004460559585842779
100.0	0.06	-0.004484052103687888
100.0	0.061	-0.004506480557906424
100.0	0.062	-0.0045278466860589955
100.0	0.063	-0.004548153527609355
100.0	0.064	-0.004567405764150402
100.0	0.065	-0.004585610059487129
100.0	0.066	-0.004602775399715852
100.0	0.067	-0.004618913432934347
100.0	0.068	-0.004634038808529264
100.0	0.069	-0.004648169515739444
100.0	0.07	-0.004661327221716641
100.0	0.071	-0.004673537608944029
100.0	0.072	-0.004684830712806804
100.0	0.073	-0.004695241259828867
100.0	0.074	-0.004704809007949749
100.0	0.075	-0.004713579090122144
100.0	0.076	-0.00472160236332985
100.0	0.077	-0.004728935765192651
100.0	0.078	-0.004735642681075228
100.0	0.079	-0.004741793324403176
100.0	0.08	-0.004747465133844744
100.0	0.081	-0.004752743190808009
100.0	0.082	-0.004757720661114139
100.0	0.083	-0.004762499264582516
100.0	0.084	-0.004767189776403567
100.0	0.085	-0.0047719125638158635
100.0	0.086	-0.004776798161285029
100.0	0.087	-0.004781987886687249
100.0	0.088	-0.004787634499929965
100.0	0.089	-0.00479390290436607
100.0	0.09	-0.004800970889079568
100.0	0.091	-0.004809029907966054
100.0	0.092	-0.004818285888061247
100.0	0.093	-0.004828960055112063
100.0	0.094	-0.0048412897590868085
100.0	0.095	-0.004855529274642518
100.0	0.096	-0.004871950542602158
100.0	0.097	-0.004890843807005076
100.0	0.098	-0.004912518087145064
100.0	0.099	-0.004937301406906806
100.0	0.1	-0.00496554068128006
100.0	0.101	-0.004997601134907223
100.0	0.102	-0.005033865097459137
100.0	0.103	-0.005074729988285778
100.0	0.104	-0.0051206052691084615
100.0	0.105	-0.005171908111732369
100.0	0.106	-0.0052290575049775976
100.0	0.107	-0.005292466519237708
100.0	0.108	-0.005362532471448014
100.0	0.109	-0.005439624805877267
100.0	0.11	-0.005524070644798997
100.0	0.111	-0.00561613818944099
100.0	0.112	-0.005716018476191981
100.0	0.113	-0.005823806412231937
100.0	0.114	-0.005939482491863444
100.0	0.115	-0.006062897053366914
100.0	0.116	-0.006193759252906657
100.0	0.117	-0.006331632958537923
100.0	0.118	-0.006475941368201336
100.0	0.119	-0.006625981278996899
100.0	0.12	-0.006780946663223419
100.0	0.121	-0.006939959786424442
100.0	0.122	-0.007068735120560092
100.0	0.123	-0.006855541798184084
100.0	0.124	-0.0066502505376568035
100.0	0.125	-0.006454092234782441
100.0	0.126	-0.006268144491595898
100.0	0.127	-0.006093312380485724
100.0	0.128	-0.005930318887332218
100.0	0.129	-0.0057797039918556815
100.0	0.13	-0.005641830845394494
100.0	0.131	-0.005516897332758583
100.0	0.132	-0.00540495136107505
100.0	0.133	-0.005305908408966676
100.0	0.134	-0.005219570116231347
100.0	0.135	-0.005145642950461114
100.0	0.136	-0.005083756223895854
100.0	0.137	-0.00503347894316089
100.0	0.138	-0.004994335151047407
100.0	0.139	-0.004965817565230101
100.0	0.14	-0.004947399435321587
100.0	0.141	-0.004938544630293145
100.0	0.142	-0.004938716034274328
100.0	0.143	-0.004947382374918759
100.0	0.144	-0.004964023636580394
100.0	0.145	-0.0049881352241619705
100.0	0.146	-0.005019231047174667
100.0	0.147	-0.005056845687311431
100.0	0.148	-0.005100535802962021
100.0	0.149	-0.0051498809093509035
100.0	0.15	-0.00520448365741865
100.0	0.151	-0.005263969718537782
100.0	0.152	-0.0053279873657772515
100.0	0.153	-0.005396206828703654
100.0	0.154	-0.005468319484447211
100.0	0.155	-0.005544036936958588
100.0	0.156	-0.005623090025454916
100.0	0.157	-0.005705227795018567
100.0	0.158	-0.005790216454573864
100.0	0.159	-0.005877838341969443
100.0	0.16	-0.005967890910432182
100.0	0.161	-0.0060601857470510495
100.0	0.162	-0.006154547630628169
100.0	0.163	-0.006250813633849249
100.0	0.164	-0.006348832272365459
100.0	0.165	-0.0064484627024491365
100.0	0.166	-0.006549573967190543
100.0	0.167	-0.006652044290570295
100.0	0.168	-0.006755760418334592
100.0	0.169	-0.006860617003634493
100.0	0.17	-0.00696651603560724
100.0	0.171	-0.00707336630858357
100.0	0.172	-0.007181082929678199
100.0	0.173	-0.007289586862407219
100.0	0.174	-0.00739880450396996
100.0	0.175	-0.007508667293971274
100.0	0.176	-0.0076191113524695575
100.0	0.177	-0.007730077145061773
100.0	0.178	-0.00784150917326762
100.0	0.179	-0.007953355688155755
100.0	0.18	-0.008065568425568053
100.0	0.181	-0.00817810236125515
100.0	0.182	-0.008290915484341556
100.0	0.183	-0.00840396858790345
100.0	0.184	-0.008517225075008508
100.0	0.185	-0.008630650779328312
100.0	0.186	-0.008744213799066895
100.0	0.187	-0.008857884342975325
100.0	0.188	-0.008971634587931146
100.0	0.189	-0.009085438546759105
100.0	0.19	-0.009199271945691744
100.0	0.191	-0.009313112110786703
100.0	0.192	-0.009426937862408802
100.0	0.193	-0.009540729417337064
100.0	0.194	-0.009654468297796929
100.0	0.195	-0.009768137246922071
100.0	0.196	-0.009881720150185895
100.0	0.197	-0.009995201962260222
100.0	0.198	-0.010108568639052096
100.0	0.199	-0.010221807074249824
100.0	0.2	-0.010334905040420657
100.0	0.201	-0.010447851133964223
100.0	0.202	-0.0105606347238528
100.0	0.203	-0.01067324590381036
100.0	0.204	-0.010785675447643191
100.0	0.205	-0.010897914767577689
100.0	0.206	-0.011009955875342377
100.0	0.207	-0.011121791345760223
100.0	0.208	-0.011233414282716384
100.0	0.209	-0.011344818287350107
100.0	0.21	-0.011455997428235803
100.0	0.211	-0.01156694621359178
100.0	0.212	-0.011677659565041921
100.0	0.213	-0.011788132793244357
100.0	0.214	-0.011898361574858686
100.0	0.215	-0.012008341931126485
100.0	0.216	-0.0121180702076106
100.0	0.217	-0.01222754305529158
100.0	0.218	-0.012336757412777882
100.0	0.219	-0.01244571048955909
100.0	0.22	-0.012554399750370336
100.0	0.221	-0.012662822900378658
100.0	0.222	-0.012770977871318472
100.0	0.223	-0.012878862808497291
100.0	0.224	-0.012986476058398495
100.0	0.225	-0.01309381615722461
100.0	0.226	-0.01320088181997029
100.0	0.227	-0.013307671930131187
100.0	0.228	-0.01341418553012039
100.0	0.229	-0.013520421812067925
100.0	0.23	-0.013626380109314247
100.0	0.231	-0.013732059888276402
100.0	0.232	-0.01383746074079
100.0	0.233	-0.013942582376926513
100.0	0.234	-0.01404742461819402
100.0	0.235	-0.014151987391096322
100.0	0.236	-0.014256270721045605
100.0	0.237	-0.01436027472666806
100.0	0.238	-0.01446399961438081
100.0	0.239	-0.014567445673267692
100.0	0.24	-0.014670613270201133
100.0	0.241	-0.014773502845351984
100.0	0.242	-0.01487611490777965
100.0	0.243	-0.014978450031368764
100.0	0.244	-0.015080508850984043
100.0	0.245	-0.015182292058771385
100.0	0.246	-0.01528380040071122
100.0	0.247	-0.015385034673274225
100.0	0.248	-0.015485995720413296
100.0	0.249	-0.015586684430550172
100.0	0.25	-0.015687101733807454
102.0	0.051	-0.004160748481524266
102.0	0.052	-0.004191186042018206
102.0	0.053	-0.004220547184257674
102.0	0.054	-0.004248834256756884
102.0	0.055	-0.004276048275469635
102.0	0.056	-0.004302189304171108
102.0	0.057	-0.004327256813481795
102.0	0.058	-0.004351250031074635
102.0	0.059	-0.004374168284499824
102.0	0.06	-0.004396011339222937
102.0	0.061	-0.00441677973498637
102.0	0.062	-0.00443647512066607
102.0	0.063	-0.0044551005891376415
102.0	0.064	-0.004472661012368425
102.0	0.065	-0.004489163376900015
102.0	0.066	-0.004504617119697209
102.0	0.067	-0.004519034464253633
102.0	0.068	-0.004532430756867154
102.0	0.069	-0.004544824803029049
102.0	0.07	-0.004556239204370796
102.0	0.071	-0.004566700696222372
102.0	0.072	-0.004576240486936004
102.0	0.073	-0.004584894599767016
102.0	0.074	-0.004592704219110519
102.0	0.075	-0.004599716042692141
102.0	0.076	-0.00460598264241322
102.0	0.077	-0.004611562836364305
102.0	0.078	-0.004616522075409024
102.0	0.079	-0.004620932847930185
102.0	0.08	-0.004624875106602907
102.0	0.081	-0.0046284367216204905
102.0	0.082	-0.004631713964865985
102.0	0.083	-0.004634812029611704
102.0	0.084	-0.004637845590542245
102.0	0.085	-0.004640939408566759
102.0	0.086	-0.0046442289846824365
102.0	0.087	-0.004647861266509635
102.0	0.088	-0.00465199541034174
102.0	0.089	-0.004656803599981334
102.0	0.09	-0.004662471921830684
102.0	0.091	-0.00466920129337869
102.0	0.092	-0.004677208438256197
102.0	0.093	-0.004686726896341384
102.0	0.094	-0.004698008051430199
102.0	0.095	-0.004711322150148745
102.0	0.096	-0.004726959275250291
102.0	0.097	-0.004745230222115293
102.0	0.098	-0.004766467209953491
102.0	0.099	-0.0047910243356291075
102.0	0.1	-0.004819277650954606
102.0	0.101	-0.004851624709780909
102.0	0.102	-0.004888483390770824
102.0	0.103	-0.004930289756044175
102.0	0.104	-0.004977494656523261
102.0	0.105	-0.005030558745933015
102.0	0.106	-0.005089945526686181
102.0	0.107	-0.005156112033500844
102.0	0.108	-0.00522949678629784
102.0	0.109	-0.005310504737813714
102.0	0.11	-0.005399489138004315
102.0	0.111	-0.005496730566801955
102.0	0.112	-0.00560241387350121
102.0	0.113	-0.005716604393698373
102.0	0.114	-0.005839225529092636
102.0	0.115	-0.005970040433757876
102.0	0.116	-0.006108640934312053
102.0	0.117	-0.006254446672548491
102.0	0.118	-0.006406716602242422
102.0	0.119	-0.006564573385413407
102.0	0.12	-0.006727039170599802
102.0	0.121	-0.006709233914107717
102.0	0.122	-0.006478477398139937
102.0	0.123	-0.006255390820560082
102.0	0.124	-0.006041427152540958
102.0	0.125	-0.005837872771842437
102.0	0.126	-0.005645821157197909
102.0	0.127	-0.005466158864284005
102.0	0.128	-0.0052995624309678585
102.0	0.129	-0.005146504178028085
102.0	0.13	-0.005007264680338847
102.0	0.131	-0.004881949816996816
102.0	0.132	-0.0047705106053620066
102.0	0.133	-0.004672764367885923
102.0	0.134	-0.004588416106544506
102.0	0.135	-0.004517079243195688
102.0	0.136	-0.004458295119316814
102.0	0.137	-0.004411550845368327
102.0	0.138	-0.00437629524985644
102.0	0.139	-0.004351952810255185
102.0	0.14	-0.004337935553202285
102.0	0.141	-0.0043336529924563535
102.0	0.142	-0.004338520232015581
102.0	0.143	-0.004351964400516793
102.0	0.144	-0.004373429604893234
102.0	0.145	-0.004402380598589308
102.0	0.146	-0.004438305357370439
102.0	0.147	-0.0044807167440218875
102.0	0.148	-0.004529153428749066
102.0	0.149	-0.004583180213194771
102.0	0.15	-0.004642387886875367
102.0	0.151	-0.004706392726266214
102.0	0.152	-0.00477483572829865
102.0	0.153	-0.004847381654685128
102.0	0.154	-0.004923717948310737
102.0	0.155	-0.005003553571306749
102.0	0.156	-0.005086617803124711
102.0	0.157	-0.005172659028740864
102.0	0.158	-0.005261443539447005
102.0	0.159	-0.005352754362944992
102.0	0.16	-0.005446390134442988
102.0	0.161	-0.005542164017237834
102.0	0.162	-0.005639902677432907
102.0	0.163	-0.005739445315970083
102.0	0.164	-0.005840642758936739
102.0	0.165	-0.0059433566058627145
102.0	0.166	-0.006047458434907409
102.0	0.167	-0.006152829062977916
102.0	0.168	-0.006259357858445392
102.0	0.169	-0.00636694210392559
102.0	0.17	-0.00647548640612728
102.0	0.171	-0.006584902150000676
102.0	0.172	-0.006695106994377953
102.0	0.173	-0.00680602440606084
102.0	0.174	-0.006917583229843597
102.0	0.175	-0.007029717291757066
102.0	0.176	-0.007142365033004137
102.0	0.177	-0.007255469172304738
102.0	0.178	-0.007368976394552698
102.0	0.179	-0.007482837063405282
102.0	0.18	-0.007597004956341251
102.0	0.181	-0.007711437020032549
102.0	0.182	-0.007826093144603799
102.0	0.183	-0.007940935955271683
102.0	0.184	-0.00805593061979536
102.0	0.185	-0.008171044670634441
102.0	0.186	-0.008286247840641895
102.0	0.187	-0.008401511911000586
102.0	0.188	-0.008516810570655843
102.0	0.189	-0.008632119286204993
102.0	0.19	-0.008747415181367096
102.0	0.191	-0.008862676925374124
102.0	0.192	-0.008977884629575515
102.0	0.193	-0.009093019751450998
102.0	0.194	-0.009208065005638514
102.0	0.195	-0.009323004281328226
102.0	0.196	-0.009437822565498624
102.0	0.197	-0.009552505871724404
102.0	0.198	-0.009667041173813505
102.0	0.199	-0.009781416344212247
102.0	0.2	-0.009895620096622409
102.0	0.201	-0.01000964193262746
102.0	0.202	-0.010123472091923935
102.0	0.203	-0.010237101505923423
102.0	0.204	-0.010350521754598788
102.0	0.205	-0.010463725026086518
102.0	0.206	-0.010576704079016147
102.0	0.207	-0.010689452207474933
102.0	0.208	-0.010801963208045912
102.0	0.209	-0.010914231349166638
102.0	0.21	-0.011026251342427759
102.0	0.211	-0.011138018315734487
102.0	0.212	-0.011249527788128218
102.0	0.213	-0.011360775646326189
102.0	0.214	-0.011471758122607064
102.0	0.215	-0.011582471774213388
102.0	0.216	-0.011692913463948155
102.0	0.217	-0.01180308034201944
102.0	0.218	-0.011912969829044407
102.0	0.219	-0.01202257959999585
102.0	0.22	-0.012131907569183515
102.0	0.221	-0.012240951876230883
102.0	0.222	-0.012349710872663284
102.0	0.223	-0.012458183109643478
102.0	0.224	-0.012566367326051497
102.0	0.225	-0.012674262437614983
102.0	0.226	-0.012781867526479222
102.0	0.227	-0.012889181831400861
102.0	0.228	-0.012996204738651117
102.0	0.229	-0.01310293577325213
102.0	0.23	-0.013209374590892048
102.0	0.231	-0.013315520970216712
102.0	0.232	-0.013421374805554052
102.0	0.233	-0.013526936100112567
102.0	0.234	-0.013632204959520017
102.0	0.235	-0.013737181585751244
102.0	0.236	-0.013841866271347631
102.0	0.237	-0.013946259394049745
102.0	0.238	-0.014050361411649802
102.0	0.239	-0.014154172857170329
102.0	0.24	-0.014257694334308391
102.0	0.241	-0.014360926513051651
102.0	0.242	-0.014463870125737712
102.0	0.243	-0.014566525963071545
102.0	0.244	-0.014668894870556025
102.0	0.245	-0.014770977745028203
102.0	0.246	-0.014872775531378972
102.0	0.247	-0.01497428921951918
102.0	0.248	-0.015075519841437875
102.0	0.249	-0.015176468468430576
102.0	0.25	-0.015277136208512947
104.0	0.051	-0.004089211027825381
104.0	0.052	-0.0041181243277897675
104.0	0.053	-0.004145956199712821
104.0	0.054	-0.004172707623496028
104.0	0.055	-0.004198378447892215
104.0	0.056	-0.004222967751240606
104.0	0.057	-0.004246474190527893
104.0	0.058	-0.004268896343344132
104.0	0.059	-0.004290233041893333
104.0	0.06	-0.004310483704599579
104.0	0.061	-0.004329648665866731
104.0	0.062	-0.004347729505484027
104.0	0.063	-0.004364729378423154
104.0	0.064	-0.0043806533451969465
104.0	0.065	-0.004395508703118974
104.0	0.066	-0.00440930531833011
104.0	0.067	-0.004422055958745653
104.0	0.068	-0.004433776627732022
104.0	0.069	-0.004444486898887681
104.0	0.07	-0.004454210252407343
104.0	0.071	-0.0044629744135401776
104.0	0.072	-0.004470811694296129
104.0	0.073	-0.004477759339974366
104.0	0.074	-0.0044838598822538
104.0	0.075	-0.004489161501221715
104.0	0.076	-0.004493718399288967
104.0	0.077	-0.004497591190145173
104.0	0.078	-0.004500847306747535
104.0	0.079	-0.004503561432301112
104.0	0.08	-0.004505815959306102
104.0	0.081	-0.00450770148129184
104.0	0.082	-0.004509317322968664
104.0	0.083	-0.00451077211423419
104.0	0.084	-0.004512184413889984
104.0	0.085	-0.004513683388643558
104.0	0.086	-0.004515409553161611
104.0	0.087	-0.0045175155761786965
104.0	0.088	-0.004520167156789839
104.0	0.089	-0.004523543974516841
104.0	0.09	-0.004527840713732613
104.0	0.091	-0.0045332681615607535
104.0	0.092	-0.0045400543740035425
104.0	0.093	-0.004548445899838417
104.0	0.094	-0.004558709045494705
104.0	0.095	-0.00457113115351106
104.0	0.096	-0.0045860218559908164
104.0	0.097	-0.004603714246028596
104.0	0.098	-0.004624565889738443
104.0	0.099	-0.004648959571978923
104.0	0.1	-0.00467730363352268
104.0	0.101	-0.004710031711985479
104.0	0.102	-0.004747601644114044
104.0	0.103	-0.0047904932227657805
104.0	0.104	-0.0048392044294684345
104.0	0.105	-0.004894245690250226
104.0	0.106	-0.0049561316372412805
104.0	0.107	-0.0050253698224918915
104.0	0.108	-0.005102445853262652
104.0	0.109	-0.005187804542120757
104.0	0.11	-0.005281826944808122
104.0	0.111	-0.005384803650947938
104.0	0.112	-0.005496905430908848
104.0	0.113	-0.0056181533114614355
104.0	0.114	-0.005748391229972502
104.0	0.115	-0.005887265347399611
104.0	0.116	-0.006034214497560542
104.0	0.117	-0.006188475702306806
104.0	0.118	-0.006349106943961345
104.0	0.119	-0.006515026602922083
104.0	0.12	-0.0063844121397006685
104.0	0.121	-0.006135648612684557
104.0	0.122	-0.005894142686652678
104.0	0.123	-0.005661597603073243
104.0	0.124	-0.005439538016938628
104.0	0.125	-0.00522927462148725
104.0	0.126	-0.005031884470348841
104.0	0.127	-0.004848205167495621
104.0	0.128	-0.004678840146031262
104.0	0.129	-0.00452417207599323
104.0	0.13	-0.004384381732625903
104.0	0.131	-0.004259470145011303
104.0	0.132	-0.004149282345387549
104.0	0.133	-0.0040535314632554244
104.0	0.134	-0.003971822240113704
104.0	0.135	-0.0039036732918735105
104.0	0.136	-0.003848537644219
104.0	0.137	-0.003805821228052695
104.0	0.138	-0.0037748991599869425
104.0	0.139	-0.00375512974966863
104.0	0.14	-0.0037458662723868857
104.0	0.141	-0.003746466621694458
104.0	0.142	-0.003756301010421565
104.0	0.143	-0.0037747579233906913
104.0	0.144	-0.0038012485417389884
104.0	0.145	-0.0038352098608148886
104.0	0.146	-0.003876106716114937
104.0	0.147	-0.003923432914823615
104.0	0.148	-0.0039767116512269855
104.0	0.149	-0.004035495361674853
104.0	0.15	-0.004099365152139477
104.0	0.151	-0.004167929910318909
104.0	0.152	-0.004240825194039208
104.0	0.153	-0.0043177119707344
104.0	0.154	-0.004398275266796935
104.0	0.155	-0.004482222773470098
104.0	0.156	-0.004569283444514671
104.0	0.157	-0.004659206112257308
104.0	0.158	-0.0047517581413278566
104.0	0.159	-0.004846724133918141
104.0	0.16	-0.004943904695273756
104.0	0.161	-0.005043115265270819
104.0	0.162	-0.0051441850187172716
104.0	0.163	-0.0052469558352088155
104.0	0.164	-0.005351281337840762
104.0	0.165	-0.005457025998985083
104.0	0.166	-0.005564064310425739
104.0	0.167	-0.005672280015038838
104.0	0.168	-0.005781565396431869
104.0	0.169	-0.005891820623225992
104.0	0.17	-0.006002953144140522
104.0	0.171	-0.006114877130935566
104.0	0.172	-0.006227512964937483
104.0	0.173	-0.006340786764772295
104.0	0.174	-0.006454629951567236
104.0	0.175	-0.006568978848940094
104.0	0.176	-0.006683774314953425
104.0	0.177	-0.006798961403484
104.0	0.178	-0.006914489052618144
104.0	0.179	-0.007030309797871142
104.0	0.18	-0.007146379508109495
104.0	0.181	-0.007262657142396268
104.0	0.182	-0.007379104526010414
104.0	0.183	-0.007495686144003423
104.0	0.184	-0.007612368950851677
104.0	0.185	-0.007729122194885098
104.0	0.186	-0.007845917256324823
104.0	0.187	-0.00796272749762524
104.0	0.188	-0.008079528125346729
104.0	0.189	-0.008196296062500672
104.0	0.19	-0.008313009830327421
104.0	0.191	-0.008429649439169011
104.0	0.192	-0.008546196287288905
104.0	0.193	-0.008662633067184483
104.0	0.194	-0.008778943678787827
104.0	0.195	-0.008895113149024502
104.0	0.196	-0.009011127557082792
104.0	0.197	-0.009126973965147075
104.0	0.198	-0.00924264035403403
104.0	0.199	-0.009358115563341493
104.0	0.2	-0.009473389235896704
104.0	0.201	-0.009588451765973532
104.0	0.202	-0.00970329425122681
104.0	0.203	-0.009817908447798649
104.0	0.204	-0.009932286728604195
104.0	0.205	-0.010046422044348215
104.0	0.206	-0.010160307887294436
104.0	0.207	-0.010273938257343811
104.0	0.208	-0.010387307630441366
104.0	0.209	-0.010500410929023814
104.0	0.21	-0.010613243494428964
104.0	0.211	-0.010725801061147497
104.0	0.212	-0.01083807973263462
104.0	0.213	-0.010950075958803285
104.0	0.214	-0.011061786514830765
104.0	0.215	-0.011173208481462256
104.0	0.216	-0.01128433922638338
104.0	0.217	-0.011395176386912271
104.0	0.218	-0.011505717853691365
104.0	0.219	-0.011615961755435682
104.0	0.22	-0.011725906444535403
104.0	0.221	-0.011835550483666678
104.0	0.222	-0.011944892633141425
104.0	0.223	-0.012053931839006745
104.0	0.224	-0.012162667221920298
104.0	0.225	-0.012271098066668418
104.0	0.226	-0.012379223812288915
104.0	0.227	-0.012487044042803708
104.0	0.228	-0.012594558478514088
104.0	0.229	-0.012701766967734462
104.0	0.23	-0.01280866947912214
104.0	0.231	-0.012915266094360186
104.0	0.232	-0.01302155700129501
104.0	0.233	-0.01312754248748193
104.0	0.234	-0.013233222934104612
104.0	0.235	-0.013338598810186432
104.0	0.236	-0.0134436706672349
104.0	0.237	-0.013548439134041893
104.0	0.238	-0.013652904911976654
104.0	0.239	-0.01375706877035555
104.0	0.24	-0.013860931542147743
104.0	0.241	-0.013964494119971983
104.0	0.242	-0.014067757452223254
104.0	0.243	-0.014170722539445535
104.0	0.244	-0.014273390430974463
104.0	0.245	-0.014375762221707684
104.0	0.246	-0.014477839048909407
104.0	0.247	-0.014579622089569795
104.0	0.248	-0.014681112557498321
104.0	0.249	-0.014782311700804216
104.0	0.25	-0.014883220799465595
106.0	0.051	-0.004019584640919338
106.0	0.052	-0.004047031818740315
106.0	0.053	-0.0040733916113872
106.0	0.054	-0.0040986637483898065
106.0	0.055	-0.00412284700647997
106.0	0.056	-0.004145939565157038
106.0	0.057	-0.004167939338101772
106.0	0.058	-0.004188844310256773
106.0	0.059	-0.004208652864507711
106.0	0.06	-0.004227364106472656
106.0	0.061	-0.004244978188770305
106.0	0.062	-0.004261496635292825
106.0	0.063	-0.0042769226660859085
106.0	0.064	-0.004291261523532318
106.0	0.065	-0.004304520799593845
106.0	0.066	-0.004316710764467124
106.0	0.067	-0.0043278446965129835
106.0	0.068	-0.00433793921400327
106.0	0.069	-0.0043470146085688
106.0	0.07	-0.004355095181568785
106.0	0.071	-0.0043622095839003575
106.0	0.072	-0.004368391160993183
106.0	0.073	-0.004373678304558786
106.0	0.074	-0.00437811481354482
106.0	0.075	-0.004381750267020372
106.0	0.076	-0.004384640412358472
106.0	0.077	-0.004386847572582729
106.0	0.078	-0.004388441077320635
106.0	0.079	-0.004389497722271957
106.0	0.08	-0.0043901022624813855
106.0	0.081	-0.004390347945720091
106.0	0.082	-0.004390337091967465
106.0	0.083	-0.004390181725922901
106.0	0.084	-0.004390004269488006
106.0	0.085	-0.004389938301398351
106.0	0.086	-0.004390129391203826
106.0	0.087	-0.004390736014548586
106.0	0.088	-0.004391930555861668
106.0	0.089	-0.004393900404161019
106.0	0.09	-0.004396849145113921
106.0	0.091	-0.004400997850763547
106.0	0.092	-0.004406586464185526
106.0	0.093	-0.00441387527064986
106.0	0.094	-0.004423146440067298
106.0	0.095	-0.004434705613948185
106.0	0.096	-0.004448883496368176
106.0	0.097	-0.004466037387787148
106.0	0.098	-0.004486552574803411
106.0	0.099	-0.004510843452970101
106.0	0.1	-0.004539354213816658
106.0	0.101	-0.004572558867975337
106.0	0.102	-0.004610960302097975
106.0	0.103	-0.00465508797667454
106.0	0.104	-0.00470549376797096
106.0	0.105	-0.004762745345259091
106.0	0.106	-0.00482741637040207
106.0	0.107	-0.0049000727373371775
106.0	0.108	-0.004981254083139258
106.0	0.109	-0.005071449966719364
106.0	0.11	-0.005171070518325136
106.0	0.111	-0.005280412106956278
106.0	0.112	-0.005399619717309874
106.0	0.113	-0.0055286492304637315
106.0	0.114	-0.005667234432790282
106.0	0.115	-0.00581486485512127
106.0	0.116	-0.005970780774643522
106.0	0.117	-0.00613399024933113
106.0	0.118	-0.0063033096776016
106.0	0.119	-0.006094444039954903
106.0	0.12	-0.005827371960537744
106.0	0.121	-0.00556693536998138
106.0	0.122	-0.005315117586607188
106.0	0.123	-0.005073713223055311
106.0	0.124	-0.004844281081911872
106.0	0.125	-0.004628117396017362
106.0	0.126	-0.00442624684835354
106.0	0.127	-0.004239427425691249
106.0	0.128	-0.00406816502939031
106.0	0.129	-0.003912734359879947
106.0	0.13	-0.0037732034234100073
106.0	0.131	-0.003649459774094167
106.0	0.132	-0.0035412371788201623
106.0	0.133	-0.003448141777307361
106.0	0.134	-0.0033696770560729464
106.0	0.135	-0.0033052671256531916
106.0	0.136	-0.00325427792406527
106.0	0.137	-0.0032160360954315787
106.0	0.138	-0.0031898454101220155
106.0	0.139	-0.0031750007040248864
106.0	0.14	-0.0031707994108071905
106.0	0.141	-0.0031765508373107327
106.0	0.142	-0.0031915833869181494
106.0	0.143	-0.003215249968047294
106.0	0.144	-0.0032469318381939056
106.0	0.145	-0.003286041131451084
106.0	0.146	-0.0033320223041162366
106.0	0.147	-0.003384352711566501
106.0	0.148	-0.0034425425048674593
106.0	0.149	-0.00350613400949349
106.0	0.15	-0.00357470072208524
106.0	0.151	-0.003647846038110033
106.0	0.152	-0.0037252018007620756
106.0	0.153	-0.0038064267435525354
106.0	0.154	-0.0038912048822190145
106.0	0.155	-0.0039792438989712355
106.0	0.156	-0.0040702735505849
106.0	0.157	-0.0041640441232968645
106.0	0.158	-0.004260324950404198
106.0	0.159	-0.004358903002865231
106.0	0.16	-0.004459581559040492
106.0	0.161	-0.004562178956494993
106.0	0.162	-0.004666527426289779
106.0	0.163	-0.004772472008458133
106.0	0.164	-0.0048798695462596315
106.0	0.165	-0.004988587755780292
106.0	0.166	-0.00509850436698725
106.0	0.167	-0.005209506332092744
106.0	0.168	-0.005321489096831989
106.0	0.169	-0.005434355930411168
106.0	0.17	-0.005548017309813034
106.0	0.171	-0.0056623903543206915
106.0	0.172	-0.005777398306545683
106.0	0.173	-0.005892970055994018
106.0	0.174	-0.006009039701915956
106.0	0.175	-0.006125546152131625
106.0	0.176	-0.006242432754801958
106.0	0.177	-0.006359646960427759
106.0	0.178	-0.006477140011509261
106.0	0.179	-0.006594866657471612
106.0	0.18	-0.006712784892757431
106.0	0.181	-0.006830855716086651
106.0	0.182	-0.006949042909010471
106.0	0.183	-0.007067312832280634
106.0	0.184	-0.0071856342383007366
106.0	0.185	-0.007303978098442107
106.0	0.186	-0.007422317443980262
106.0	0.187	-0.007540627219314463
106.0	0.188	-0.007658884146666685
106.0	0.189	-0.007777066601173085
106.0	0.19	-0.007895154495489222
106.0	0.191	-0.008013129173196463
106.0	0.192	-0.008130973310231838
106.0	0.193	-0.00824867082370545
106.0	0.194	-0.008366206787415434
106.0	0.195	-0.008483567353736534
106.0	0.196	-0.008600739681101286
106.0	0.197	-0.008717711866833792
106.0	0.198	-0.008834472884794676
106.0	0.199	-0.008951012527460748
106.0	0.2	-0.009067321352232845
106.0	0.201	-0.009183390631376485
106.0	0.202	-0.00929921230568593
106.0	0.203	-0.009414778941150436
106.0	0.204	-0.009530083688724883
106.0	0.205	-0.00964512024691376
106.0	0.206	-0.009759882826788167
106.0	0.207	-0.009874366119456216
106.0	0.208	-0.0099885652657012
106.0	0.209	-0.010102475827596238
106.0	0.21	-0.010216093762079248
106.0	0.211	-0.01032941539625211
106.0	0.212	-0.010442437404219566
106.0	0.213	-0.01055515678556298
106.0	0.214	-0.010667570845060245
106.0	0.215	-0.010779677173873401
106.0	0.216	-0.010891473631755742
106.0	0.217	-0.011002958330557297
106.0	0.218	-0.011114129618647129
106.0	0.219	-0.011224986066352631
106.0	0.22	-0.011335526452366303
106.0	0.221	-0.011445749750882118
106.0	0.222	-0.011555655119594723
106.0	0.223	-0.011665241888449493
106.0	0.224	-0.011774509548998374
106.0	0.225	-0.011883457744537636
106.0	0.226	-0.011992086260659608
106.0	0.227	-0.012100395016557216
106.0	0.228	-0.012208384056702881
106.0	0.229	-0.012316053543052522
106.0	0.23	-0.012423403747829371
106.0	0.231	-0.012530435046569203
106.0	0.232	-0.012637147911693764
106.0	0.233	-0.012743542906334525
106.0	0.234	-0.012849620678649105
106.0	0.235	-0.012955381956429712
106.0	0.236	-0.013060827541941893
106.0	0.237	-0.013165958307160679
106.0	0.238	-0.013270775189207499
106.0	0.239	-0.013375279186156119
106.0	0.24	-0.013479471352859308
106.0	0.241	-0.01358335279732451
106.0	0.242	-0.013686924676978485
106.0	0.243	-0.013790188195353614
106.0	0.244	-0.01389314459890826
106.0	0.245	-0.013995795173979217
106.0	0.246	-0.014098141243966446
106.0	0.247	-0.014200184166550315
106.0	0.248	-0.01430192533133279
106.0	0.249	-0.014403366157283411
106.0	0.25	-0.014504508090537944
108.0	0.051	-0.003951804025111352
108.0	0.052	-0.003977838969468956
108.0	0.053	-0.004002779730848796
108.0	0.054	-0.004026624891680279
108.0	0.055	-0.004049372246174428
108.0	0.056	-0.004071019141905501
108.0	0.057	-0.004091562810790089
108.0	0.058	-0.004111000693869214
108.0	0.059	-0.004129330762119894
108.0	0.06	-0.00414655183566265
108.0	0.061	-0.004162663902568054
108.0	0.062	-0.0041776684382929235
108.0	0.063	-0.004191568726240985
108.0	0.064	-0.004204370179759249
108.0	0.065	-0.00421608066580257
108.0	0.066	-0.004226710830374541
108.0	0.067	-0.004236274425964543
108.0	0.068	-0.00424478864136261
108.0	0.069	-0.004252274434397097
108.0	0.07	-0.004258756868659889
108.0	0.071	-0.004264265455247379
108.0	0.072	-0.004268834501513033
108.0	0.073	-0.004272503468828651
108.0	0.074	-0.004275317342149753
108.0	0.075	-0.004277327014688754
108.0	0.076	-0.004278589691537123
108.0	0.077	-0.004279169316614233
108.0	0.078	-0.00427913702822756
108.0	0.079	-0.004278571648677204
108.0	0.08	-0.004277560214382526
108.0	0.081	-0.004276198553340138
108.0	0.082	-0.004274591917477117
108.0	0.083	-0.004272855677825309
108.0	0.084	-0.004271116090998497
108.0	0.085	-0.0042695111459995225
108.0	0.086	-0.004268191500246394
108.0	0.087	-0.0042673215142106655
108.0	0.088	-0.004267080393301581
108.0	0.089	-0.004267663445467961
108.0	0.09	-0.004269283460725628
108.0	0.091	-0.004272172217754832
108.0	0.092	-0.004276582117822528
108.0	0.093	-0.004282787941547644
108.0	0.094	-0.004291088715794167
108.0	0.095	-0.004301809666263585
108.0	0.096	-0.004315304214804578
108.0	0.097	-0.004331955957556691
108.0	0.098	-0.004352180527751086
108.0	0.099	-0.004376427203406045
108.0	0.1	-0.004405180061545243
108.0	0.101	-0.0044389584025695894
108.0	0.102	-0.004478316068124392
108.0	0.103	-0.004523839150032871
108.0	0.104	-0.004576141436751501
108.0	0.105	-0.004635856775502786
108.0	0.106	-0.0047036273612815266
108.0	0.107	-0.004780086840595649
108.0	0.108	-0.004865837109627449
108.0	0.109	-0.004961417907341163
108.0	0.11	-0.005067268906983017
108.0	0.111	-0.005183685160680324
108.0	0.112	-0.005310768554458425
108.0	0.113	-0.005448380295515525
108.0	0.114	-0.005596101916477923
108.0	0.115	-0.005753213926399534
108.0	0.116	-0.005918700837337284
108.0	0.117	-0.006091287896479036
108.0	0.118	-0.005839430018979298
108.0	0.119	-0.005553917928564917
108.0	0.12	-0.0052741781437429
108.0	0.121	-0.005002505979892109
108.0	0.122	-0.004741000521450618
108.0	0.123	-0.004491502003873323
108.0	0.124	-0.004255556099891295
108.0	0.125	-0.0040344014488794345
108.0	0.126	-0.003828974625661541
108.0	0.127	-0.003639926704087201
108.0	0.128	-0.0034676466999684834
108.0	0.129	-0.0033122886162742496
108.0	0.13	-0.003173800032143915
108.0	0.131	-0.003051950999801951
108.0	0.132	-0.002946362468547001
108.0	0.133	-0.002856533666858886
108.0	0.134	-0.002781867965119745