Variables="alpha" "beta" "omega"
Zone T="R=500s" I=200 J=101
100.0	0.051	0.007209575950007034
100.0	0.052	0.007433849951628192
100.0	0.053	0.007659847795883197
100.0	0.054	0.00788763662053435
100.0	0.055	0.008117279963815817
100.0	0.056	0.008348838025763285
100.0	0.057	0.008582367909966596
100.0	0.058	0.008817923835225283
100.0	0.059	0.009055557332975049
100.0	0.06	0.009295317433020707
100.0	0.061	0.009537250841736011
100.0	0.062	0.009781402116919927
100.0	0.063	0.010027813842088035
100.0	0.064	0.010276526802579677
100.0	0.065	0.010527580165216967
100.0	0.066	0.010781011662572886
100.0	0.067	0.011036857782285053
100.0	0.068	0.011295153961498723
100.0	0.069	0.01155593478557497
100.0	0.07	0.011819234190152149
100.0	0.071	0.012085085664586478
100.0	0.072	0.012353522454985347
100.0	0.073	0.01262457776377058
100.0	0.074	0.012898284943318357
100.0	0.075	0.01317467767966498
100.0	0.076	0.01345379016278414
100.0	0.077	0.013735657239074862
100.0	0.078	0.014020314541501835
100.0	0.079	0.014307798592093461
100.0	0.08	0.014598146871445082
100.0	0.081	0.014891397848988006
100.0	0.082	0.015187590967196858
100.0	0.083	0.015486766572404297
100.0	0.084	0.015788965783506748
100.0	0.085	0.016094230289248557
100.0	0.086	0.016402602063093047
100.0	0.087	0.016714122983453823
100.0	0.088	0.01702883434498268
100.0	0.089	0.017346776244795227
100.0	0.09	0.017667986824807552
100.0	0.091	0.017992501348876033
100.0	0.092	0.018320351090352828
100.0	0.093	0.01865156200216419
100.0	0.094	0.018986153138654146
100.0	0.095	0.01932413479401594
100.0	0.096	0.01966550632037135
100.0	0.097	0.020010253584689813
100.0	0.098	0.020358346023476897
100.0	0.099	0.020709733255193874
100.0	0.1	0.021064341214157973
100.0	0.101	0.0214220677804278
100.0	0.102	0.02178277789635536
100.0	0.103	0.022146298188434527
100.0	0.104	0.022512411154456166
100.0	0.105	0.02288084903521949
100.0	0.106	0.023251287571392974
100.0	0.107	0.02362333995270241
100.0	0.108	0.02399655139914588
100.0	0.109	0.024370394967771422
100.0	0.11	0.02474426934168165
100.0	0.111	0.025117499505004564
100.0	0.112	0.025489341297669044
100.0	0.113	0.025858990822272457
100.0	0.114	0.026225599476014258
100.0	0.115	0.02658829494593812
100.0	0.116	0.02694620781515224
100.0	0.117	0.027298502526985766
100.0	0.118	0.027644410483665355
100.0	0.119	0.02798326224633898
100.0	0.12	0.02831451541493026
100.0	0.121	0.028637775002170445
100.0	0.122	0.045391926318964285
100.0	0.123	0.04592562806729041
100.0	0.124	0.046471429438730026
100.0	0.125	0.047028502070024084
100.0	0.126	0.047595865763441124
100.0	0.127	0.04817242492568893
100.0	0.128	0.04875700590827421
100.0	0.129	0.04934839274261518
100.0	0.13	0.04994535948508951
100.0	0.131	0.05054669809497495
100.0	0.132	0.05115124136143655
100.0	0.133	0.05175788084083716
100.0	0.134	0.05236558006733146
100.0	0.135	0.05297338348734902
100.0	0.136	0.05358042166710314
100.0	0.137	0.05418591336193605
100.0	0.138	0.05478916503265015
100.0	0.139	0.05538956836269402
100.0	0.14	0.055986596281062756
100.0	0.141	0.05657979793482315
100.0	0.142	0.057168792990302114
100.0	0.143	0.05775326557591086
100.0	0.144	0.05833295811666124
100.0	0.145	0.058907665252671354
100.0	0.146	0.05947722798344268
100.0	0.147	0.060041528136264816
100.0	0.148	0.06060048322158249
100.0	0.149	0.061154041709816795
100.0	0.15	0.06170217874217919
100.0	0.151	0.062244892271755344
100.0	0.152	0.06278219961955368
100.0	0.153	0.06331413442247427
100.0	0.154	0.06384074394535665
100.0	0.155	0.06436208672677993
100.0	0.156	0.06487823052766442
100.0	0.157	0.06538925055184679
100.0	0.158	0.06589522790947451
100.0	0.159	0.06639624829544986
100.0	0.16	0.0668924008576157
100.0	0.161	0.0673837772313397
100.0	0.162	0.06787047071943551
100.0	0.163	0.06835257559884483
100.0	0.164	0.06883018653703894
100.0	0.165	0.06930339810363059
100.0	0.166	0.0697723043639736
100.0	0.167	0.07023699854342391
100.0	0.168	0.0706975727522626
100.0	0.169	0.0711541177626028
100.0	0.17	0.07160672282975174
100.0	0.171	0.0720554755513833
100.0	0.172	0.07250046175901961
100.0	0.173	0.07294176543681316
100.0	0.174	0.07337946866342764
100.0	0.175	0.07381365157347569
100.0	0.176	0.07424439233525723
100.0	0.177	0.07467176714224298
100.0	0.178	0.07509585021595722
100.0	0.179	0.0755167138182347
100.0	0.18	0.07593442827130537
100.0	0.181	0.076349061984127
100.0	0.182	0.07676068148382836
100.0	0.183	0.07716935145120848
100.0	0.184	0.07757513475938294
100.0	0.185	0.07797809251480893
100.0	0.186	0.07837828410016688
100.0	0.187	0.07877576721837316
100.0	0.188	0.07917059793744431
100.0	0.189	0.07956283073574882
100.0	0.19	0.0799525185474175
100.0	0.191	0.08033971280739918
100.0	0.192	0.08072446349643984
100.0	0.193	0.0811068191852217
100.0	0.194	0.08148682707790239
100.0	0.195	0.08186453305492461
100.0	0.196	0.0822399817147936
100.0	0.197	0.08261321641497828
100.0	0.198	0.08298427931169197
100.0	0.199	0.08335321139876656
100.0	0.2	0.08372005254523371
100.0	0.201	0.08408484153198113
100.0	0.202	0.08444761608722015
100.0	0.203	0.08480841292087224
100.0	0.204	0.08516726775782951
100.0	0.205	0.08552421537015517
100.0	0.206	0.08587928960826374
100.0	0.207	0.08623252343092157
100.0	0.208	0.08658394893437349
100.0	0.209	0.0869335973802968
100.0	0.21	0.08728149922298467
100.0	0.211	0.0876276841354227
100.0	0.212	0.08797218103446508
100.0	0.213	0.08831501810516088
100.0	0.214	0.08865622282417131
100.0	0.215	0.08899582198243897
100.0	0.216	0.08933384170686946
100.0	0.217	0.0896703074814274
100.0	0.218	0.09000524416731362
100.0	0.219	0.09033867602255999
100.0	0.22	0.0906706267207549
100.0	0.221	0.09100111936925334
100.0	0.222	0.09133017652664649
100.0	0.223	0.09165782021959729
100.0	0.224	0.09198407195912506
100.0	0.225	0.09230895275624834
100.0	0.226	0.09263248313713249
100.0	0.227	0.09295468315762159
100.0	0.228	0.09327557241731593
100.0	0.229	0.09359517007315721
100.0	0.23	0.09391349485244185
100.0	0.231	0.0942305650655119
100.0	0.232	0.09454639861790018
100.0	0.233	0.0948610130220536
100.0	0.234	0.09517442540875143
100.0	0.235	0.09548665253797381
100.0	0.236	0.09579771080953493
100.0	0.237	0.09610761627324882
100.0	0.238	0.09641638463883007
100.0	0.239	0.096724031285388
100.0	0.24	0.09703057127063602
100.0	0.241	0.09733601933978782
100.0	0.242	0.09764038993416105
100.0	0.243	0.09794369719943063
100.0	0.244	0.09824595499373995
100.0	0.245	0.09854717689540297
100.0	0.246	0.09884737621041062
100.0	0.247	0.09914656597974407
100.0	0.248	0.09944475898635122
100.0	0.249	0.0997419677619637
100.0	0.25	0.1000382045936414
102.0	0.051	0.0072553249382295015
102.0	0.052	0.007479017520485069
102.0	0.053	0.007704464299528431
102.0	0.054	0.00793173082712964
102.0	0.055	0.00816087923177053
102.0	0.056	0.008391968476308541
102.0	0.057	0.008625054591690245
102.0	0.058	0.008860190889252766
102.0	0.059	0.009097428159956317
102.0	0.06	0.00933681485883616
102.0	0.061	0.00957839730318525
102.0	0.062	0.009822219823412935
102.0	0.063	0.010068324973874429
102.0	0.064	0.010316753701413495
102.0	0.065	0.010567545536637336
102.0	0.066	0.010820738786671481
102.0	0.067	0.01107637073348336
102.0	0.068	0.011334477837420844
102.0	0.069	0.011595095945022012
102.0	0.07	0.01185826050013801
102.0	0.071	0.01212400675620317
102.0	0.072	0.01239236998786885
102.0	0.073	0.012663385698965766
102.0	0.074	0.012937089824141282
102.0	0.075	0.013213518920185963
102.0	0.076	0.01349271034369004
102.0	0.077	0.01377470241041541
102.0	0.078	0.014059534531849202
102.0	0.079	0.014347247323610889
102.0	0.08	0.014637882680142315
102.0	0.081	0.014931483809253375
102.0	0.082	0.015228095219397907
102.0	0.083	0.015527762651795146
102.0	0.084	0.01583053294816035
102.0	0.085	0.016136453843897218
102.0	0.086	0.016445573674416986
102.0	0.087	0.016757940981267545
102.0	0.088	0.017073604001460817
102.0	0.089	0.017392610021712475
102.0	0.09	0.017715004575553958
102.0	0.091	0.018040830458224633
102.0	0.092	0.018370126529905745
102.0	0.093	0.018702926273752737
102.0	0.094	0.01903925606989573
102.0	0.095	0.019379133142285003
102.0	0.096	0.019722563129482826
102.0	0.097	0.02006953722664336
102.0	0.098	0.020420028842544184
102.0	0.099	0.020773989714755286
102.0	0.1	0.021131345429018233
102.0	0.101	0.02149199029860575
102.0	0.102	0.021855781577935135
102.0	0.103	0.02222253301741232
102.0	0.104	0.022592007817917613
102.0	0.105	0.02296391111991811
102.0	0.106	0.023337882272130316
102.0	0.107	0.02371348727110774
102.0	0.108	0.024090211952384522
102.0	0.109	0.02446745673767235
102.0	0.11	0.024844533984991635
102.0	0.111	0.02522066920818849
102.0	0.112	0.02559500756469599
102.0	0.113	0.0259666269610356
102.0	0.114	0.02633455878427399
102.0	0.115	0.026697816547962265
102.0	0.116	0.027055431620767845
102.0	0.117	0.027406493802823718
102.0	0.118	0.02775019311105099
102.0	0.119	0.02808585814865129
102.0	0.12	0.028412986276497833
102.0	0.121	0.04456195165414881
102.0	0.122	0.045092449834222656
102.0	0.123	0.04563662655361674
102.0	0.124	0.0461936472594485
102.0	0.125	0.04676248635520563
102.0	0.126	0.047341970187573794
102.0	0.127	0.047930821706164466
102.0	0.128	0.04852770342754698
102.0	0.129	0.049131256374728184
102.0	0.13	0.049740133653045915
102.0	0.131	0.05035302811196774
102.0	0.132	0.050968694097534316
102.0	0.133	0.05158596364458752
102.0	0.134	0.05220375765409133
102.0	0.135	0.05282109269344689
102.0	0.136	0.053437084089479205
102.0	0.137	0.05405094597703424
102.0	0.138	0.05466198893300364
102.0	0.139	0.055269615776816994
102.0	0.14	0.05587331605597945
102.0	0.141	0.05647265966678853
102.0	0.142	0.05706728998767978
102.0	0.143	0.05765691683158672
102.0	0.144	0.05824130945622008
102.0	0.145	0.05882028981063922
102.0	0.146	0.0593937261437264
102.0	0.147	0.059961527056101915
102.0	0.148	0.060523636041492114
102.0	0.149	0.06108002653593012
102.0	0.15	0.06163069747233486
102.0	0.151	0.06217566932343827
102.0	0.152	0.06271498060591817
102.0	0.153	0.06324868481247406
102.0	0.154	0.06377684773575232
102.0	0.155	0.06429954514627974
102.0	0.156	0.06481686078800936
102.0	0.157	0.06532888465592071
102.0	0.158	0.0658357115226918
102.0	0.159	0.06633743968396884
102.0	0.16	0.06683416989470872
102.0	0.161	0.06732600447153154
102.0	0.162	0.06781304653891317
102.0	0.163	0.06829539939968626
102.0	0.164	0.06877316601245519
102.0	0.165	0.06924644856070372
102.0	0.166	0.06971534810063482
102.0	0.167	0.07017996427582299
102.0	0.168	0.07064039508925354
102.0	0.169	0.07109673672371261
102.0	0.17	0.07154908340333725
102.0	0.171	0.07199752728981484
102.0	0.172	0.07244215840794449
102.0	0.173	0.07288306459560825
102.0	0.174	0.07332033147432537
102.0	0.175	0.07375404243687905
102.0	0.176	0.07418427864901128
102.0	0.177	0.07461111906288262
102.0	0.178	0.07503464043989941
102.0	0.179	0.07545491738129201
102.0	0.18	0.07587202236493665
102.0	0.181	0.07628602578686501
102.0	0.182	0.07669699600668616
102.0	0.183	0.07710499939574066
102.0	0.184	0.07751010038741492
102.0	0.185	0.07791236152875851
102.0	0.186	0.07831184353299485
102.0	0.187	0.07870860533245014
102.0	0.188	0.07910270413152279
102.0	0.189	0.0794941954592946
102.0	0.19	0.07988313322171037
102.0	0.191	0.08026956975293427
102.0	0.192	0.08065355586585994
102.0	0.193	0.08103514090156695
102.0	0.194	0.08141437277760782
102.0	0.195	0.08179129803517207
102.0	0.196	0.08216596188488814
102.0	0.197	0.0825384082514225
102.0	0.198	0.08290867981666128
102.0	0.199	0.08327681806163786
102.0	0.2	0.0836428633070332
102.0	0.201	0.08400685475247446
102.0	0.202	0.08436883051437685
102.0	0.203	0.0847288276626035
102.0	0.204	0.08508688225577912
102.0	0.205	0.08544302937538953
102.0	0.206	0.08579730315867015
102.0	0.207	0.08614973683030011
102.0	0.208	0.08650036273295642
102.0	0.209	0.08684921235670945
102.0	0.21	0.08719631636741314
102.0	0.211	0.08754170463401306
102.0	0.212	0.08788540625478056
102.0	0.213	0.08822744958267024
102.0	0.214	0.08856786224969901
102.0	0.215	0.08890667119040103
102.0	0.216	0.08924390266441196
102.0	0.217	0.08957958227823579
102.0	0.218	0.08991373500617311
102.0	0.219	0.09024638521049169
102.0	0.22	0.09057755666083792
102.0	0.221	0.09090727255292544
102.0	0.222	0.0912355555265387
102.0	0.223	0.0915624276829074
102.0	0.224	0.0918879106013169
102.0	0.225	0.09221202535530479
102.0	0.226	0.09253479252809085
102.0	0.227	0.09285623222752037
102.0	0.228	0.09317636410049127
102.0	0.229	0.09349520734678918
102.0	0.23	0.0938127807324616
102.0	0.231	0.09412910260273402
102.0	0.232	0.0944441908944373
102.0	0.233	0.09475806314796656
102.0	0.234	0.09507073651890297
102.0	0.235	0.09538222778907487
102.0	0.236	0.09569255337747362
102.0	0.237	0.09600172935048779
102.0	0.238	0.09630977143203329
102.0	0.239	0.09661669501319486
102.0	0.24	0.09692251516159449
102.0	0.241	0.09722724663041044
102.0	0.242	0.09753090386708149
102.0	0.243	0.09783350102179011
102.0	0.244	0.09813505195552494
102.0	0.245	0.09843557024804706
102.0	0.246	0.09873506920539862
102.0	0.247	0.09903356186731965
102.0	0.248	0.09933106101435739
102.0	0.249	0.09962757917471426
102.0	0.25	0.09992312863094575
104.0	0.051	0.007298168627751719
104.0	0.052	0.007521313820368809
104.0	0.053	0.007746242055403786
104.0	0.054	0.007973017484033361
104.0	0.055	0.008201700944042434
104.0	0.056	0.008432350292188452
104.0	0.057	0.008665020612292247
104.0	0.058	0.008899764429895193
104.0	0.059	0.009136631912823996
104.0	0.06	0.009375671062955039
104.0	0.061	0.009616927904143154
104.0	0.062	0.009860446668961645
104.0	0.063	0.010106269986930698
104.0	0.064	0.010354439076161792
104.0	0.065	0.010604993939819334
104.0	0.066	0.0108579735679286
104.0	0.067	0.011113416145045955
104.0	0.068	0.01137135926315734
104.0	0.069	0.011631840139064722
104.0	0.07	0.011894895834985222
104.0	0.071	0.01216056348044002
104.0	0.072	0.012428880493197098
104.0	0.073	0.012699884796611799
104.0	0.074	0.012973615030416587
104.0	0.075	0.013250110751182376
104.0	0.076	0.013529412618971288
104.0	0.077	0.013811562565486206
104.0	0.078	0.014096603939399946
104.0	0.079	0.014384581623250806
104.0	0.08	0.014675542116208758
104.0	0.081	0.014969533576262975
104.0	0.082	0.01526660581417709
104.0	0.083	0.015566810231003016
104.0	0.084	0.015870199689286477
104.0	0.085	0.01617682830667711
104.0	0.086	0.01648675115898124
104.0	0.087	0.016800023877010253
104.0	0.088	0.01711670211919593
104.0	0.089	0.01743684089864931
104.0	0.09	0.01776049373928445
104.0	0.091	0.018087711631403713
104.0	0.092	0.01841854175198348
104.0	0.093	0.018753025908603706
104.0	0.094	0.019091198660078156
104.0	0.095	0.019433085058953088
104.0	0.096	0.019778697954502458
104.0	0.097	0.020128034786589907
104.0	0.098	0.020481073795808803
104.0	0.099	0.02083776957040604
104.0	0.1	0.0211980478516487
104.0	0.101	0.021561799527488074
104.0	0.102	0.02192887376300585
104.0	0.103	0.022299070255617365
104.0	0.104	0.02267213066452428
104.0	0.105	0.02304772936504846
104.0	0.106	0.023425463824189204
104.0	0.107	0.023804845100104766
104.0	0.108	0.024185289236941927
104.0	0.109	0.024566110658023135
104.0	0.11	0.02494651902136401
104.0	0.111	0.025325621334465153
104.0	0.112	0.02570243131486579
104.0	0.113	0.026075887873265962
104.0	0.114	0.026444884001256327
104.0	0.115	0.026808306128950972
104.0	0.116	0.027165082188986875
104.0	0.117	0.02751423445324487
104.0	0.118	0.027854931264087307
104.0	0.119	0.028186530794842464
104.0	0.12	0.04373410613010867
104.0	0.121	0.0442598496687137
104.0	0.122	0.04480095564074968
104.0	0.123	0.04535660605848037
104.0	0.124	0.04592574476668601
104.0	0.125	0.04650712808549329
104.0	0.126	0.04709937815944678
104.0	0.127	0.04770103442416852
104.0	0.128	0.04831060014778677
104.0	0.129	0.04892658243338772
104.0	0.13	0.049547525140389674
104.0	0.131	0.050172034866277526
104.0	0.132	0.05079880049935468
104.0	0.133	0.05142660701984202
104.0	0.134	0.05205434428100956
104.0	0.135	0.05268101150657831
104.0	0.136	0.05330571822006331
104.0	0.137	0.05392768229095541
104.0	0.138	0.05454622573987411
104.0	0.139	0.055160768891105216
104.0	0.14	0.05577082339560154
104.0	0.141	0.05637598457580794
104.0	0.142	0.056975923466222836
104.0	0.143	0.05757037884872464
104.0	0.144	0.05815914950973683
104.0	0.145	0.05874208688300733
104.0	0.146	0.059319088187126695
104.0	0.147	0.059890090121570205
104.0	0.148	0.06045506315031256
104.0	0.149	0.06101400637452202
104.0	0.15	0.06156694297721313
104.0	0.151	0.06211391620905149
104.0	0.152	0.06265498587666843
104.0	0.153	0.06319022529042957
104.0	0.154	0.06371971862706208
104.0	0.155	0.06424355866294451
104.0	0.156	0.06476184483606398
104.0	0.157	0.0652746815967742
104.0	0.158	0.0657821770113293
104.0	0.159	0.06628444158509089
104.0	0.16	0.06678158727591976
104.0	0.161	0.06727372667158907
104.0	0.162	0.06776097230799907
104.0	0.163	0.06824343610806177
104.0	0.164	0.06872122892344451
104.0	0.165	0.06919446016399652
104.0	0.166	0.06966323750150669
104.0	0.167	0.07012766663636884
104.0	0.168	0.07058785111741507
104.0	0.169	0.07104389220634574
104.0	0.17	0.07149588877977964
104.0	0.171	0.07194393726239157
104.0	0.172	0.07238813158641241
104.0	0.173	0.0728285631724587
104.0	0.174	0.07326532092835278
104.0	0.175	0.0736984912624295
104.0	0.176	0.07412815810871101
104.0	0.177	0.07455440296165025
104.0	0.178	0.07497730491844982
104.0	0.179	0.07539694072731568
104.0	0.18	0.07581338484033864
104.0	0.181	0.07622670946974561
104.0	0.182	0.07663698464661897
104.0	0.183	0.07704427828122921
104.0	0.184	0.07744865622441793
104.0	0.185	0.07785018232931076
104.0	0.186	0.07824891851301913
104.0	0.187	0.07864492481801183
104.0	0.188	0.07903825947264434
104.0	0.189	0.07942897895086273
104.0	0.19	0.07981713803071244
104.0	0.191	0.08020278985152787
104.0	0.192	0.08058598596975232
104.0	0.193	0.08096677641332736
104.0	0.194	0.08134520973441414
104.0	0.195	0.08172133306062712
104.0	0.196	0.08209519214460792
104.0	0.197	0.08246683141201283
104.0	0.198	0.08283629400790588
104.0	0.199	0.08320362184152717
104.0	0.2	0.08356885562946706
104.0	0.201	0.08393203493740578
104.0	0.202	0.08429319822016453
104.0	0.203	0.08465238286047326
104.0	0.204	0.08500962520612715
104.0	0.205	0.0853649606058951
104.0	0.206	0.0857184234439898
104.0	0.207	0.08607004717321348
104.0	0.208	0.08641986434691942
104.0	0.209	0.08676790664970047
104.0	0.21	0.0871142049268509
104.0	0.211	0.08745878921284277
104.0	0.212	0.08780168875850083
104.0	0.213	0.08814293205732682
104.0	0.214	0.08848254687069772
104.0	0.215	0.08882056025210427
104.0	0.216	0.08915699857048784
104.0	0.217	0.0894918875326727
104.0	0.218	0.08982525220494168
104.0	0.219	0.09015711703374274
104.0	0.22	0.09048750586569498
104.0	0.221	0.09081644196672084
104.0	0.222	0.09114394804059492
104.0	0.223	0.09147004624664348
104.0	0.224	0.09179475821687275
104.0	0.225	0.09211810507245015
104.0	0.226	0.09244010743950867
104.0	0.227	0.09276078546444619
104.0	0.228	0.09308015882859083
104.0	0.229	0.09339824676237679
104.0	0.23	0.09371506805894442
104.0	0.231	0.09403064108730852
104.0	0.232	0.09434498380500204
104.0	0.233	0.09465811377027716
104.0	0.234	0.09497004815387872
104.0	0.235	0.09528080375035848
104.0	0.236	0.0955903969890474
104.0	0.237	0.09589884394457752
104.0	0.238	0.09620616034708841
104.0	0.239	0.0965123615920086
104.0	0.24	0.09681746274959321
104.0	0.241	0.0971214785740168
104.0	0.242	0.09742442351223521
104.0	0.243	0.09772631171254872
104.0	0.244	0.09802715703278797
104.0	0.245	0.09832697304830124
104.0	0.246	0.09862577305966944
104.0	0.247	0.09892357010011643
104.0	0.248	0.09922037694270819
104.0	0.249	0.09951620610729811
104.0	0.25	0.0998110698672608
106.0	0.051	0.007338335294600942
106.0	0.052	0.007560964736247927
106.0	0.053	0.0077854047668374435
106.0	0.054	0.008011718188144924
106.0	0.055	0.008239964707773148
106.0	0.056	0.008470201190582949
106.0	0.057	0.008702481887690898
106.0	0.058	0.008936858650058457
106.0	0.059	0.009173381130976523
106.0	0.06	0.009412096982475991
106.0	0.061	0.009653052048471666
106.0	0.062	0.009896290558089826
106.0	0.063	0.010141855321378866
106.0	0.064	0.010389787929143177
106.0	0.065	0.01064012895820407
106.0	0.066	0.010892918182472767
106.0	0.067	0.011148194790168306
106.0	0.068	0.01140599760655367
106.0	0.069	0.01166636532139951
106.0	0.07	0.011929336719629896
106.0	0.071	0.012194950913472224
106.0	0.072	0.012463247573688628
106.0	0.073	0.012734267157359501
106.0	0.074	0.013008051129123038
106.0	0.075	0.0132846421723131
106.0	0.076	0.013564084386387842
106.0	0.077	0.013846423466125454
106.0	0.078	0.014131706858097622
106.0	0.079	0.01441998388884183
106.0	0.08	0.014711305859135701
106.0	0.081	0.015005726097249879
106.0	0.082	0.015303299963799734
106.0	0.083	0.015604084799157161
106.0	0.084	0.01590813980304817
106.0	0.085	0.016215525834206893
106.0	0.086	0.01652630511567376
106.0	0.087	0.016840540828748612
106.0	0.088	0.01715829657495698
106.0	0.089	0.017479635682243068
106.0	0.09	0.017804620325658868
106.0	0.091	0.018133310428564725
106.0	0.092	0.018465762302628537
106.0	0.093	0.018802026977943673
106.0	0.094	0.01914214816547945
106.0	0.095	0.019486159784221198
106.0	0.096	0.019834082975128363
106.0	0.097	0.020185922512164035
106.0	0.098	0.020541662511294162
106.0	0.099	0.02090126132877988
106.0	0.1	0.021264645537257498
106.0	0.101	0.021631702871968483
106.0	0.102	0.022002274059553538
106.0	0.103	0.02237614348361298
106.0	0.104	0.02275302871905733
106.0	0.105	0.023132569095564767
106.0	0.106	0.023514313649199217
106.0	0.107	0.023897709108108817
106.0	0.108	0.024282088949435964
106.0	0.109	0.024666665054635984
106.0	0.11	0.025050524038841258
106.0	0.111	0.025432630833878384
106.0	0.112	0.02581184237414487
106.0	0.113	0.026186933993033745
106.0	0.114	0.026556640078226997
106.0	0.115	0.026919708448212325
106.0	0.116	0.027274964915810145
106.0	0.117	0.027621381215616036
106.0	0.118	0.0279581369935958
106.0	0.119	0.042909714149589384
106.0	0.12	0.04342899874086341
106.0	0.121	0.0439654233004512
106.0	0.122	0.04451821488717026
106.0	0.123	0.0450863057745711
106.0	0.124	0.045668393276096314
106.0	0.125	0.046263003692898694
106.0	0.126	0.04686855398093539
106.0	0.127	0.04748340710419429
106.0	0.128	0.04810591918273704
106.0	0.129	0.04873447805231147
106.0	0.13	0.04936753370007142
106.0	0.131	0.05000362139358634
106.0	0.132	0.05064137839249297
106.0	0.133	0.05127955508508381
106.0	0.134	0.05191702132504734
106.0	0.135	0.05255276869365403
106.0	0.136	0.05318590938003887
106.0	0.137	0.0538156723485234
106.0	0.138	0.05444139742911019
106.0	0.139	0.05506252792259637
106.0	0.14	0.05567860224908463
106.0	0.141	0.05628924509537561
106.0	0.142	0.056894158434988046
106.0	0.143	0.05749311271442645
106.0	0.144	0.0580859384222232
106.0	0.145	0.05867251819014155
106.0	0.146	0.05925277951864576
106.0	0.147	0.05982668817267653
106.0	0.148	0.06039424225881998
106.0	0.149	0.060955466968502445
106.0	0.15	0.061510409954721935
106.0	0.151	0.062059137298196454
106.0	0.152	0.06260173001257262
106.0	0.153	0.06313828103599392
106.0	0.154	0.06366889265668334
106.0	0.155	0.06419367432188318
106.0	0.156	0.06471274078315459
106.0	0.157	0.06522621053440969
106.0	0.158	0.06573420450381347
106.0	0.159	0.06623684496405352
106.0	0.16	0.0667342546303272
106.0	0.161	0.06722655591858705
106.0	0.162	0.06771387034025401
106.0	0.163	0.0681963180129002
106.0	0.164	0.06867401726892408
106.0	0.165	0.06914708434696262
106.0	0.166	0.06961563315292037
106.0	0.167	0.07007977507922195
106.0	0.168	0.07053961887288579
106.0	0.169	0.0709952705441222
106.0	0.17	0.0714468333085401
106.0	0.171	0.07189440755711661
106.0	0.172	0.07233809084898662
106.0	0.173	0.07277797792270232
106.0	0.174	0.07321416072261208
106.0	0.175	0.07364672843729829
106.0	0.176	0.07407576754745483
106.0	0.177	0.0745013618812947
106.0	0.178	0.07492359267565234
106.0	0.179	0.07534253864121651
106.0	0.18	0.07575827603090718
106.0	0.181	0.07617087871008427
106.0	0.182	0.0765804182280665
106.0	0.183	0.07698696389006289
106.0	0.184	0.07739058282893797
106.0	0.185	0.0777913400766799
106.0	0.186	0.07818929863465585
106.0	0.187	0.07858451954297116
106.0	0.188	0.07897706194818015
106.0	0.189	0.07936698316958436
106.0	0.19	0.07975433876368429
106.0	0.191	0.08013918258686924
106.0	0.192	0.08052156685624583
106.0	0.193	0.08090154220850208
106.0	0.194	0.08127915775682668
106.0	0.195	0.08165446114597065
106.0	0.196	0.08202749860524475
106.0	0.197	0.08239831499975564
106.0	0.198	0.08276695387966045
106.0	0.199	0.08313345752757151
106.0	0.2	0.08349786700433078
106.0	0.201	0.08386022219277992
106.0	0.202	0.08422056184009039
106.0	0.203	0.08457892359829311
106.0	0.204	0.08493534406321901
106.0	0.205	0.08528985881199141
106.0	0.206	0.08564250243896965
106.0	0.207	0.08599330859030957
106.0	0.208	0.08634230999709408
106.0	0.209	0.08668953850722991
106.0	0.21	0.08703502511593554
106.0	0.211	0.08737879999522472
106.0	0.212	0.08772089252199836
106.0	0.213	0.08806133130515753
106.0	0.214	0.08840014421161957
106.0	0.215	0.08873735839122715
106.0	0.216	0.08907300030081484
106.0	0.217	0.08940709572715935
106.0	0.218	0.08973966980920317
106.0	0.219	0.09007074705925566
106.0	0.22	0.09040035138347989
106.0	0.221	0.09072850610145239
106.0	0.222	0.09105523396520132
106.0	0.223	0.09138055717720438
106.0	0.224	0.09170449740795034
106.0	0.225	0.09202707581270181
106.0	0.226	0.09234831304764998
106.0	0.227	0.09266822928548002
106.0	0.228	0.09298684423030407
106.0	0.229	0.09330417713208881
106.0	0.23	0.09362024680049122
106.0	0.231	0.09393507161825737
106.0	0.232	0.09424866955402597
106.0	0.233	0.09456105817474236
106.0	0.234	0.09487225465761714
106.0	0.235	0.0951822758015858
106.0	0.236	0.09549113803841486
106.0	0.237	0.09579885744341601
106.0	0.238	0.09610544974573185
106.0	0.239	0.0964109303382607
106.0	0.24	0.09671531428732977
106.0	0.241	0.0970186163418334
106.0	0.242	0.09732085094226334
106.0	0.243	0.09762203222932277
106.0	0.244	0.09792217405221301
106.0	0.245	0.09822128997670103
106.0	0.246	0.09851939329289675
106.0	0.247	0.09881649702276618
106.0	0.248	0.0991126139273389
106.0	0.249	0.09940775651377823
106.0	0.25	0.0997019370421234
108.0	0.051	0.007376031707586071
108.0	0.052	0.007598174923100887
108.0	0.053	0.007822155022352006
108.0	0.054	0.008048033615334231
108.0	0.055	0.008275869376267252
108.0	0.056	0.008505718288610228
108.0	0.057	0.008737633877009113
108.0	0.058	0.008971667420006851
108.0	0.059	0.009207868156473037
108.0	0.06	0.00944628348684319
108.0	0.061	0.009686959171904042
108.0	0.062	0.009929939533065035
108.0	0.063	0.010175267655865995
108.0	0.064	0.010422985598049543
108.0	0.065	0.010673134604460711
108.0	0.066	0.010925755327104762
108.0	0.067	0.011180888052604296
108.0	0.068	0.011438572935154344
108.0	0.069	0.011698850234491437
108.0	0.07	0.011961760557387971
108.0	0.071	0.012227345100756688
108.0	0.072	0.012495645894230162
108.0	0.073	0.012766706039469812
108.0	0.074	0.013040569943339589
108.0	0.075	0.01331728354141399
108.0	0.076	0.013596894508117484
108.0	0.077	0.013879452449306481
108.0	0.078	0.014165009072581808
108.0	0.079	0.014453618329881464
108.0	0.08	0.01474533652662579
108.0	0.081	0.015040222390237848
108.0	0.082	0.01533833709037536
108.0	0.083	0.015639744201258653
108.0	0.084	0.01594450959538994
108.0	0.085	0.01625270125538543
108.0	0.086	0.016564388988429865
108.0	0.087	0.016879644024385305
108.0	0.088	0.017198538474982795
108.0	0.089	0.01752114462667463
108.0	0.09	0.017847534033673097
108.0	0.091	0.018177776371333776
108.0	0.092	0.018511938001305052
108.0	0.093	0.018850080189915252
108.0	0.094	0.019192256910221327
108.0	0.095	0.019538512144315182
108.0	0.096	0.019888876587748603
108.0	0.097	0.02024336364159326
108.0	0.098	0.020601964561422152
108.0	0.099	0.020964642616499864
108.0	0.1	0.021331326102400176
108.0	0.101	0.021701900048251423
108.0	0.102	0.022076196476098493
108.0	0.103	0.02245398311553509
108.0	0.104	0.02283495056990792
108.0	0.105	0.023218698095920542
108.0	0.106	0.02360471842652986
108.0	0.107	0.02399238247318272
108.0	0.108	0.024380925314121952
108.0	0.109	0.024769435611668878
108.0	0.11	0.025156851442577975
108.0	0.111	0.02554196629408682
108.0	0.112	0.025923449349136922
108.0	0.113	0.02629988366470764
108.0	0.114	0.026669823916675505
108.0	0.115	0.027031871772048043
108.0	0.116	0.02738476206132675
108.0	0.117	0.02772744813094357
108.0	0.118	0.042090284412113384
108.0	0.119	0.04260125995162434
108.0	0.12	0.04313123184344682
108.0	0.121	0.043679507410845725
108.0	0.122	0.044245030722312326
108.0	0.123	0.04482645374656343
108.0	0.124	0.04542221372111382
108.0	0.125	0.046030607492113636
108.0	0.126	0.04664985730799795
108.0	0.127	0.04727816588099198
108.0	0.128	0.04791376075143899
108.0	0.129	0.04855492907479087
108.0	0.13	0.049200044226450794
108.0	0.131	0.04984758548236835
108.0	0.132	0.050496151775134626
108.0	0.133	0.05114447031060228
108.0	0.134	0.051791400706470134
108.0	0.135	0.05243593527522602
108.0	0.136	0.05307719607704715
108.0	0.137	0.053714429381990295
108.0	0.138	0.05434699817651567
108.0	0.139	0.054974373318668446
108.0	0.14	0.05559612388818031
108.0	0.141	0.0562119072002848
108.0	0.142	0.05682145886317339
108.0	0.143	0.05742458317088412
108.0	0.144	0.058021144038845306
108.0	0.145	0.058611056617309185
108.0	0.146	0.05919427965718716
108.0	0.147	0.05977080865542448
108.0	0.148	0.06034066977233404
108.0	0.149	0.060903914488205695
108.0	0.15	0.061460614950544085
108.0	0.151	0.0620108599546404
108.0	0.152	0.062554751495241
108.0	0.153	0.06309240182745847
108.0	0.154	0.06362393097672227
108.0	0.155	0.0641494646413549
108.0	0.156	0.06466913243607156
108.0	0.157	0.06518306642943766
108.0	0.158	0.06569139993365096
108.0	0.159	0.06619426650986059
108.0	0.16	0.0666917991565219
108.0	0.161	0.06718412965319598
108.0	0.162	0.06767138803515473
108.0	0.163	0.06815370217837421
108.0	0.164	0.06863119747681444
108.0	0.165	0.06910399659699169
108.0	0.166	0.06957221929673396
108.0	0.167	0.07003598229742444
108.0	0.168	0.0704953992001102
108.0	0.169	0.07095058043797688
108.0	0.17	0.07140163325834818
108.0	0.171	0.0718486617287275
108.0	0.172	0.07229176676231633
108.0	0.173	0.07273104615892406
108.0	0.174	0.07316659465821437
108.0	0.175	0.07359850400231842
108.0	0.176	0.074026863005802
108.0	0.177	0.07445175763091134
108.0	0.178	0.07487327106666818
108.0	0.179	0.07529148381042944
108.0	0.18	0.07570647375095589
108.0	0.181	0.07611831625203481