Variables="alpha" "beta" "omega"
Zone T="1" I=240 J=80
0.01	0.00125	0.00014277060514891776
0.01	0.0025	0.00019399068511052528
0.01	0.00375	0.00026979663878133814
0.01	0.005	0.000342575226498529
0.01	0.00625	0.0003628874411599287
0.01	0.0075	0.00035584502870259697
0.01	0.00875	0.0003377656388616609
0.01	0.01	0.0003165647883618717
0.01	0.01125	0.00029603071943203816
0.01	0.0125	0.00027778606793135355
0.01	0.01375	0.0002623186095884749
0.01	0.015	0.0002495432286466672
0.01	0.01625	0.00023914620577727974
0.01	0.0175	0.00023086661567113355
0.01	0.01875	0.00022428712948855835
0.01	0.02	0.0002188470235206754
0.01	0.02125	0.00021410134166545406
0.01	0.0225	0.00020977958890300557
0.01	0.02375	0.00020572353192709528
0.01	0.025	0.00020184817060102394
0.01	0.02625	0.00019816396136764568
0.01	0.0275	0.00019484477975729078
0.01	0.02875	0.00019226717114575632
0.01	0.03	0.00019088238297723886
0.01	0.03125	0.00019091521512439754
0.01	0.0325	0.00019218835135057928
0.01	0.03375	0.00019424205400752687
0.01	0.035	0.0001965367659925607
0.01	0.03625	0.00019856023517787974
0.01	0.0375	0.00019984638030776352
0.01	0.03875	0.00019995611683418804
0.01	0.04	0.000198445684999546
0.01	0.04125	0.00019482684873330707
0.01	0.0425	0.00018851106503349314
0.01	0.04375	0.0001787153868483556
0.01	0.045	0.00016427120288479136
0.01	0.04625	0.00014314308728342269
0.01	0.0475	0.00011074952757108928
0.01	0.04875	4.599697174884152e-5
0.01	0.05	0.0
0.01	0.05125	0.0
0.01	0.0525	0.0
0.01	0.05375	0.0
0.01	0.055	0.0
0.01	0.05625	4.3785164550948044e-5
0.01	0.0575	5.3766665922490504e-5
0.01	0.05875	4.9009849919067936e-5
0.01	0.06	2.0172158924462714e-5
0.01	0.06125	0.0
0.01	0.0625	0.0
0.01	0.06375	0.0
0.01	0.065	0.0
0.01	0.06625	0.0
0.01	0.0675	0.0
0.01	0.06875	0.0
0.01	0.07	0.0
0.01	0.07125	0.0
0.01	0.0725	0.0
0.01	0.07375	0.0
0.01	0.075	0.0
0.01	0.07625	0.0
0.01	0.0775	0.0
0.01	0.07875	0.0
0.01	0.08	0.0
0.01	0.08125	0.0
0.01	0.0825	0.0
0.01	0.08375	0.0
0.01	0.085	0.0
0.01	0.08625	0.0
0.01	0.0875	0.0
0.01	0.08875	0.0
0.01	0.09	0.0
0.01	0.09125	0.0
0.01	0.0925	0.0
0.01	0.09375	0.0
0.01	0.095	0.0
0.01	0.09625	0.0
0.01	0.0975	0.0
0.01	0.09875	0.0
0.01	0.1	0.0
0.01	0.10125	0.0
0.01	0.1025	0.0
0.01	0.10375	0.0
0.01	0.105	0.0
0.01	0.10625	0.0
0.01	0.1075	0.0
0.01	0.10875	0.0
0.01	0.11	0.0
0.01	0.11125	0.0
0.01	0.1125	0.0
0.01	0.11375	0.0
0.01	0.115	0.0
0.01	0.11625	0.0
0.01	0.1175	0.0
0.01	0.11875	0.0
0.01	0.12	0.0
0.01	0.12125	0.0
0.01	0.1225	0.0
0.01	0.12375	0.0
0.01	0.125	0.0
0.01	0.12625	0.0
0.01	0.1275	0.0
0.01	0.12875	0.0
0.01	0.13	0.0
0.01	0.13125	0.0
0.01	0.1325	0.0
0.01	0.13375	0.0
0.01	0.135	0.0
0.01	0.13625	0.0
0.01	0.1375	0.0
0.01	0.13875	0.0
0.01	0.14	0.0
0.01	0.14125	0.0
0.01	0.1425	0.0
0.01	0.14375	0.0
0.01	0.145	0.0
0.01	0.14625	0.0
0.01	0.1475	0.0
0.01	0.14875	0.0
0.01	0.15	0.0
0.01	0.15125	0.0
0.01	0.1525	0.0
0.01	0.15375	0.0
0.01	0.155	0.0
0.01	0.15625	0.0
0.01	0.1575	0.0
0.01	0.15875	0.0
0.01	0.16	0.0
0.01	0.16125	0.0
0.01	0.1625	0.0
0.01	0.16375	0.0
0.01	0.165	0.0
0.01	0.16625	0.0
0.01	0.1675	0.0
0.01	0.16875	0.0
0.01	0.17	0.0
0.01	0.17125	0.0
0.01	0.1725	0.0
0.01	0.17375	0.0
0.01	0.175	0.0
0.01	0.17625	0.0
0.01	0.1775	0.0
0.01	0.17875	0.0
0.01	0.18	0.0
0.01	0.18125	0.0
0.01	0.1825	0.0
0.01	0.18375	0.0
0.01	0.185	0.0
0.01	0.18625	0.0
0.01	0.1875	0.0
0.01	0.18875	0.0
0.01	0.19	0.0
0.01	0.19125	0.0
0.01	0.1925	0.0
0.01	0.19375	0.0
0.01	0.195	0.0
0.01	0.19625	0.0
0.01	0.1975	0.0
0.01	0.19875	0.0
0.01	0.2	0.0
0.01	0.20125	0.0
0.01	0.2025	0.0
0.01	0.20375	0.0
0.01	0.205	0.0
0.01	0.20625	0.0
0.01	0.2075	0.0
0.01	0.20875	0.0
0.01	0.21	0.0
0.01	0.21125	0.0
0.01	0.2125	0.0
0.01	0.21375	0.0
0.01	0.215	0.0
0.01	0.21625	0.0
0.01	0.2175	0.0
0.01	0.21875	0.0
0.01	0.22	0.0
0.01	0.22125	0.0
0.01	0.2225	0.0
0.01	0.22375	0.0
0.01	0.225	0.0
0.01	0.22625	0.0
0.01	0.2275	0.0
0.01	0.22875	0.0
0.01	0.23	0.0
0.01	0.23125	0.0
0.01	0.2325	0.0
0.01	0.23375	0.0
0.01	0.235	0.0
0.01	0.23625	0.0
0.01	0.2375	0.0
0.01	0.23875	0.0
0.01	0.24	0.0
0.01	0.24125	0.0
0.01	0.2425	0.0
0.01	0.24375	0.0
0.01	0.245	0.0
0.01	0.24625	0.0
0.01	0.2475	0.0
0.01	0.24875	0.0
0.01	0.25	0.0
0.01	0.25125	0.0
0.01	0.2525	0.0
0.01	0.25375	0.0
0.01	0.255	0.0
0.01	0.25625	0.0
0.01	0.2575	0.0
0.01	0.25875	0.0
0.01	0.26	0.0
0.01	0.26125	0.0
0.01	0.2625	0.0
0.01	0.26375	0.0
0.01	0.265	0.0
0.01	0.26625	0.0
0.01	0.2675	0.0
0.01	0.26875	0.0
0.01	0.27	0.0
0.01	0.27125	0.0
0.01	0.2725	0.0
0.01	0.27375	0.0
0.01	0.275	0.0
0.01	0.27625	0.0
0.01	0.2775	0.0
0.01	0.27875	0.0
0.01	0.28	0.0
0.01	0.28125	0.0
0.01	0.2825	0.0
0.01	0.28375	0.0
0.01	0.285	0.0
0.01	0.28625	0.0
0.01	0.2875	0.0
0.01	0.28875	0.0
0.01	0.29	0.0
0.01	0.29125	0.0
0.01	0.2925	0.0
0.01	0.29375	0.0
0.01	0.295	0.0
0.01	0.29625	0.0
0.01	0.2975	0.0
0.01	0.29875	0.0
0.01	0.3	0.0
0.02	0.00125	0.0003437458889599285
0.02	0.0025	0.0004051568012581953
0.02	0.00375	0.0004754405989358306
0.02	0.005	0.0005607880575386583
0.02	0.00625	0.0006735900664071412
0.02	0.0075	0.0007977425001174174
0.02	0.00875	0.0008900697878735182
0.02	0.01	0.0009472537768760291
0.02	0.01125	0.0009791969895416462
0.02	0.0125	0.00099389282013629
0.02	0.01375	0.0009968524794794628
0.02	0.015	0.0009918858657380607
0.02	0.01625	0.000981669455927489
0.02	0.0175	0.0009681020582676997
0.02	0.01875	0.0009525326598934108
0.02	0.02	0.0009359131674457077
0.02	0.02125	0.000918905146297337
0.02	0.0225	0.000901956787072916
0.02	0.02375	0.0008853595125751862
0.02	0.025	0.0008692903564186114
0.02	0.02625	0.0008538434237929898
0.02	0.0275	0.0008390528114230527
0.02	0.02875	0.0008249111113107728
0.02	0.03	0.0008113849016768432
0.02	0.03125	0.0007984245694461962
0.02	0.0325	0.0007859677468843378
0.02	0.03375	0.00077393992905904
0.02	0.035	0.0007622562807554192
0.02	0.03625	0.0007508257231577619
0.02	0.0375	0.0007395558560387047
0.02	0.03875	0.0007283568411705333
0.02	0.04	0.000717143286126708
0.02	0.04125	0.0007058341705066152
0.02	0.0425	0.0006943513775191515
0.02	0.04375	0.0006826174771632289
0.02	0.045	0.0006705532904092489
0.02	0.04625	0.00065807563181123
0.02	0.0475	0.0006450955740841669
0.02	0.04875	0.0006315176468531241
0.02	0.05	0.0006172406232035003
0.02	0.05125	0.0006021610675732526
0.02	0.0525	0.0005861818266235262
0.02	0.05375	0.0005692294728504935
0.02	0.055	0.00055128761058917
0.02	0.05625	0.0005324558862984654
0.02	0.0575	0.0005130407998757843
0.02	0.05875	0.0004936530676916702
0.02	0.06	0.0004752036538434474
0.02	0.06125	0.0004586388912391971
0.02	0.0625	0.000444484927863222
0.02	0.06375	0.0004326240262482715
0.02	0.065	0.00042249294760757054
0.02	0.06625	0.0004134036775488516
0.02	0.0675	0.00040472909100505695
0.02	0.06875	0.0003959511777600785
0.02	0.07	0.00038664674559433235
0.02	0.07125	0.0003764571663344616
0.02	0.0725	0.00036505845576192654
0.02	0.07375	0.0003521340456985881
0.02	0.075	0.0003373475309353155
0.02	0.07625	0.00032031005454782717
0.02	0.0775	0.0003005331021142048
0.02	0.07875	0.0002773479283936098
0.02	0.08	0.0002497457843723384
0.02	0.08125	0.00021600217106406452
0.02	0.0825	0.00017254196717068446
0.02	0.08375	0.0001082767289655891
0.02	0.085	0.0
0.02	0.08625	0.0
0.02	0.0875	0.0
0.02	0.08875	0.0
0.02	0.09	0.0
0.02	0.09125	0.0
0.02	0.0925	0.0
0.02	0.09375	0.0
0.02	0.095	0.0
0.02	0.09625	0.0
0.02	0.0975	0.0
0.02	0.09875	0.0
0.02	0.1	0.0
0.02	0.10125	0.0
0.02	0.1025	0.0
0.02	0.10375	0.0
0.02	0.105	0.0
0.02	0.10625	0.0
0.02	0.1075	0.0
0.02	0.10875	0.0
0.02	0.11	0.0
0.02	0.11125	0.0
0.02	0.1125	0.0
0.02	0.11375	0.0
0.02	0.115	0.0
0.02	0.11625	0.0
0.02	0.1175	0.0
0.02	0.11875	0.0
0.02	0.12	0.0
0.02	0.12125	0.0
0.02	0.1225	0.0
0.02	0.12375	0.0
0.02	0.125	0.0
0.02	0.12625	0.0
0.02	0.1275	0.0
0.02	0.12875	0.0
0.02	0.13	0.0
0.02	0.13125	0.0
0.02	0.1325	0.0
0.02	0.13375	0.0
0.02	0.135	0.0
0.02	0.13625	0.0
0.02	0.1375	0.0
0.02	0.13875	0.0
0.02	0.14	0.0
0.02	0.14125	0.0
0.02	0.1425	0.0
0.02	0.14375	0.0
0.02	0.145	0.0
0.02	0.14625	0.0
0.02	0.1475	0.0
0.02	0.14875	0.0
0.02	0.15	0.0
0.02	0.15125	0.0
0.02	0.1525	0.0
0.02	0.15375	0.0
0.02	0.155	0.0
0.02	0.15625	0.0
0.02	0.1575	0.0
0.02	0.15875	0.0
0.02	0.16	0.0
0.02	0.16125	0.0
0.02	0.1625	0.0
0.02	0.16375	0.0
0.02	0.165	0.0
0.02	0.16625	0.0
0.02	0.1675	0.0
0.02	0.16875	0.0
0.02	0.17	0.0
0.02	0.17125	0.0
0.02	0.1725	0.0
0.02	0.17375	0.0
0.02	0.175	0.0
0.02	0.17625	0.0
0.02	0.1775	0.0
0.02	0.17875	0.0
0.02	0.18	0.0
0.02	0.18125	0.0
0.02	0.1825	0.0
0.02	0.18375	0.0
0.02	0.185	0.0
0.02	0.18625	0.0
0.02	0.1875	0.0
0.02	0.18875	0.0
0.02	0.19	0.0
0.02	0.19125	0.0
0.02	0.1925	0.0
0.02	0.19375	0.0
0.02	0.195	0.0
0.02	0.19625	0.0
0.02	0.1975	0.0
0.02	0.19875	0.0
0.02	0.2	0.0
0.02	0.20125	0.0
0.02	0.2025	0.0
0.02	0.20375	0.0
0.02	0.205	0.0
0.02	0.20625	0.0
0.02	0.2075	0.0
0.02	0.20875	0.0
0.02	0.21	0.0
0.02	0.21125	0.0
0.02	0.2125	0.0
0.02	0.21375	0.0
0.02	0.215	0.0
0.02	0.21625	0.0
0.02	0.2175	0.0
0.02	0.21875	0.0
0.02	0.22	0.0
0.02	0.22125	0.0
0.02	0.2225	0.0
0.02	0.22375	0.0
0.02	0.225	0.0
0.02	0.22625	0.0
0.02	0.2275	0.0
0.02	0.22875	0.0
0.02	0.23	0.0
0.02	0.23125	0.0
0.02	0.2325	0.0
0.02	0.23375	0.0
0.02	0.235	0.0
0.02	0.23625	0.0
0.02	0.2375	0.0
0.02	0.23875	0.0
0.02	0.24	0.0
0.02	0.24125	0.0
0.02	0.2425	0.0
0.02	0.24375	0.0
0.02	0.245	0.0
0.02	0.24625	0.0
0.02	0.2475	0.0
0.02	0.24875	0.0
0.02	0.25	0.0
0.02	0.25125	0.0
0.02	0.2525	0.0
0.02	0.25375	0.0
0.02	0.255	0.0
0.02	0.25625	0.0
0.02	0.2575	0.0
0.02	0.25875	0.0
0.02	0.26	0.0
0.02	0.26125	0.0
0.02	0.2625	0.0
0.02	0.26375	0.0
0.02	0.265	0.0
0.02	0.26625	0.0
0.02	0.2675	0.0
0.02	0.26875	0.0
0.02	0.27	0.0
0.02	0.27125	0.0
0.02	0.2725	0.0
0.02	0.27375	0.0
0.02	0.275	0.0
0.02	0.27625	0.0
0.02	0.2775	0.0
0.02	0.27875	0.0
0.02	0.28	0.0
0.02	0.28125	0.0
0.02	0.2825	0.0
0.02	0.28375	0.0
0.02	0.285	0.0
0.02	0.28625	0.0
0.02	0.2875	0.0
0.02	0.28875	0.0
0.02	0.29	0.0
0.02	0.29125	0.0
0.02	0.2925	0.0
0.02	0.29375	0.0
0.02	0.295	0.0
0.02	0.29625	0.0
0.02	0.2975	0.0
0.02	0.29875	0.0
0.02	0.3	0.0
0.03	0.00125	0.0005824600337250469
0.03	0.0025	0.0006521121670692839
0.03	0.00375	0.0007279838011186909
0.03	0.005	0.0008121809639519671
0.03	0.00625	0.000909350483513178
0.03	0.0075	0.0010284370280783585
0.03	0.00875	0.0011747651994030526
0.03	0.01	0.0013258009947798772
0.03	0.01125	0.0014528939535408583
0.03	0.0125	0.0015503024478080096
0.03	0.01375	0.0016224618861288523
0.03	0.015	0.0016747112723363884
0.03	0.01625	0.0017114287040297452
0.03	0.0175	0.0017359936132396426
0.03	0.01875	0.0017510076951469074
0.03	0.02	0.0017584931808142898
0.03	0.02125	0.0017600384684777395
0.03	0.0225	0.00175690175016882
0.03	0.02375	0.0017500854240641707
0.03	0.025	0.001740390656208274
0.03	0.02625	0.0017284583230800803
0.03	0.0275	0.0017148004080752045
0.03	0.02875	0.0016998245341043774
0.03	0.03	0.0016838534352428235
0.03	0.03125	0.001667140598663013
0.03	0.0325	0.0016498829480137765
0.03	0.03375	0.001632231217516616
0.03	0.035	0.0016142984710210283
0.03	0.03625	0.0015961670724033406
0.03	0.0375	0.0015778944023042757
0.03	0.03875	0.0015595176474920134
0.03	0.04	0.0015410578944276918
0.03	0.04125	0.001522523561868896
0.03	0.0425	0.0015039130885529555
0.03	0.04375	0.0014852168543005508
0.03	0.045	0.0014664184814047556
0.03	0.04625	0.0014474957912645004
0.03	0.0475	0.0014284216939564572
0.03	0.04875	0.0014091651822526405
0.03	0.05	0.0013896924610869456
0.03	0.05125	0.001369968136209981
0.03	0.0525	0.0013499563416864266
0.03	0.05375	0.001329621697131295
0.03	0.055	0.0013089300260321602
0.03	0.05625	0.0012878488120300912
0.03	0.0575	0.0012663474034469856
0.03	0.05875	0.0012443969938569141
0.03	0.06	0.0012219704093910228
0.03	0.06125	0.0011990417264140221
0.03	0.0625	0.0011755857322969842
0.03	0.06375	0.0011515772309438296
0.03	0.065	0.0011269901871794102
0.03	0.06625	0.0011017967015688114
0.03	0.0675	0.0010759658103426189
0.03	0.06875	0.0010494621133409303
0.03	0.07	0.0010222442435318404
0.03	0.07125	0.0009942632029232826
0.03	0.0725	0.0009654605962714728
0.03	0.07375	0.0009357667933448712
0.03	0.075	0.00090509903759234
0.03	0.07625	0.0008733594912235233
0.03	0.0775	0.0008404331568130761
0.03	0.07875	0.0008061855335879741
0.03	0.08	0.0007704597251906763
0.03	0.08125	0.0007330724614512134
0.03	0.0825	0.0006938080125496636
0.03	0.08375	0.0006524080258887708
0.03	0.085	0.0006085534138679111
0.03	0.08625	0.0005618304949816894
0.03	0.0875	0.0005116650268231379
0.03	0.08875	0.0004571870768274204
0.03	0.09	0.00039693079520430793
0.03	0.09125	0.0003280610753238966
0.03	0.0925	0.000243721680346805
0.03	0.09375	0.0001139341161325248
0.03	0.095	0.0
0.03	0.09625	0.0
0.03	0.0975	0.0
0.03	0.09875	0.0
0.03	0.1	0.0
0.03	0.10125	0.0
0.03	0.1025	0.0
0.03	0.10375	0.0
0.03	0.105	0.0
0.03	0.10625	0.0
0.03	0.1075	0.0
0.03	0.10875	0.0
0.03	0.11	0.0
0.03	0.11125	0.0
0.03	0.1125	0.0
0.03	0.11375	0.0
0.03	0.115	0.0
0.03	0.11625	0.0
0.03	0.1175	0.0
0.03	0.11875	0.0
0.03	0.12	0.0
0.03	0.12125	0.0
0.03	0.1225	0.0
0.03	0.12375	0.0
0.03	0.125	0.0
0.03	0.12625	0.0
0.03	0.1275	0.0
0.03	0.12875	0.0
0.03	0.13	0.0
0.03	0.13125	0.0
0.03	0.1325	0.0
0.03	0.13375	0.0
0.03	0.135	0.0
0.03	0.13625	0.0
0.03	0.1375	0.0
0.03	0.13875	0.0
0.03	0.14	0.0
0.03	0.14125	0.0
0.03	0.1425	0.0
0.03	0.14375	0.0
0.03	0.145	0.0
0.03	0.14625	0.0
0.03	0.1475	0.0
0.03	0.14875	0.0
0.03	0.15	0.0
0.03	0.15125	0.0
0.03	0.1525	0.0
0.03	0.15375	0.0
0.03	0.155	0.0
0.03	0.15625	0.0
0.03	0.1575	0.0
0.03	0.15875	0.0
0.03	0.16	0.0
0.03	0.16125	0.0
0.03	0.1625	0.0
0.03	0.16375	0.0
0.03	0.165	0.0
0.03	0.16625	0.0
0.03	0.1675	0.0
0.03	0.16875	0.0
0.03	0.17	0.0
0.03	0.17125	0.0
0.03	0.1725	0.0
0.03	0.17375	0.0
0.03	0.175	0.0
0.03	0.17625	0.0
0.03	0.1775	0.0
0.03	0.17875	0.0
0.03	0.18	0.0
0.03	0.18125	0.0
0.03	0.1825	0.0
0.03	0.18375	0.0
0.03	0.185	0.0
0.03	0.18625	0.0
0.03	0.1875	0.0
0.03	0.18875	0.0
0.03	0.19	0.0
0.03	0.19125	0.0
0.03	0.1925	0.0
0.03	0.19375	0.0
0.03	0.195	0.0
0.03	0.19625	0.0
0.03	0.1975	0.0
0.03	0.19875	0.0
0.03	0.2	0.0
0.03	0.20125	0.0
0.03	0.2025	0.0
0.03	0.20375	0.0
0.03	0.205	0.0
0.03	0.20625	0.0
0.03	0.2075	0.0
0.03	0.20875	0.0
0.03	0.21	0.0
0.03	0.21125	0.0
0.03	0.2125	0.0
0.03	0.21375	0.0
0.03	0.215	0.0
0.03	0.21625	0.0
0.03	0.2175	0.0
0.03	0.21875	0.0
0.03	0.22	0.0
0.03	0.22125	0.0
0.03	0.2225	0.0
0.03	0.22375	0.0
0.03	0.225	0.0
0.03	0.22625	0.0
0.03	0.2275	0.0
0.03	0.22875	0.0
0.03	0.23	0.0
0.03	0.23125	0.0
0.03	0.2325	0.0
0.03	0.23375	0.0
0.03	0.235	0.0
0.03	0.23625	0.0
0.03	0.2375	0.0
0.03	0.23875	0.0
0.03	0.24	0.0
0.03	0.24125	0.0
0.03	0.2425	0.0
0.03	0.24375	0.0
0.03	0.245	0.0
0.03	0.24625	0.0
0.03	0.2475	0.0
0.03	0.24875	0.0
0.03	0.25	0.0
0.03	0.25125	0.0
0.03	0.2525	0.0
0.03	0.25375	0.0
0.03	0.255	0.0
0.03	0.25625	0.0
0.03	0.2575	0.0
0.03	0.25875	0.0
0.03	0.26	0.0
0.03	0.26125	0.0
0.03	0.2625	0.0
0.03	0.26375	0.0
0.03	0.265	0.0
0.03	0.26625	0.0
0.03	0.2675	0.0
0.03	0.26875	0.0
0.03	0.27	0.0
0.03	0.27125	0.0
0.03	0.2725	0.0
0.03	0.27375	0.0
0.03	0.275	0.0
0.03	0.27625	0.0
0.03	0.2775	0.0
0.03	0.27875	0.0
0.03	0.28	0.0
0.03	0.28125	0.0
0.03	0.2825	0.0
0.03	0.28375	0.0
0.03	0.285	0.0
0.03	0.28625	0.0
0.03	0.2875	0.0
0.03	0.28875	0.0
0.03	0.29	0.0
0.03	0.29125	0.0
0.03	0.2925	0.0
0.03	0.29375	0.0
0.03	0.295	0.0
0.03	0.29625	0.0
0.03	0.2975	0.0
0.03	0.29875	0.0
0.03	0.3	0.0
0.04	0.00125	0.0008414690238420729
0.04	0.0025	0.0009170727573574008
0.04	0.00375	0.0009976142101287553
0.04	0.005	0.0010842256823224122
0.04	0.00625	0.0011790595693173974
0.04	0.0075	0.0012862459515359925
0.04	0.00875	0.00141296918005226
0.04	0.01	0.0015666211984088924
0.04	0.01125	0.0017404843570162116
0.04	0.0125	0.001909871923554163
0.04	0.01375	0.0020570799936817964
0.04	0.015	0.002178729765333425
0.04	0.01625	0.0022773770157262425
0.04	0.0175	0.0023566334437128554
0.04	0.01875	0.0024197843418974226
0.04	0.02	0.0024695557120718624
0.04	0.02125	0.0025081637279880213
0.04	0.0225	0.002537410902904652
0.04	0.02375	0.0025587730949553317
0.04	0.025	0.002573468237922948
0.04	0.02625	0.0025825087597856973
0.04	0.0275	0.002586741419781713
0.04	0.02875	0.0025868778426814095
0.04	0.03	0.0025835182326790725
0.04	0.03125	0.0025771700602487155
0.04	0.0325	0.0025682630009651753
0.04	0.03375	0.0025571610394885444
0.04	0.035	0.0025441723964915266
0.04	0.03625	0.0025295577569986604
0.04	0.0375	0.0025135371537694145
0.04	0.03875	0.0024962957715140904
0.04	0.04	0.0024779888732003614
0.04	0.04125	0.0024587460008154765
0.04	0.0425	0.0024386745717336787
0.04	0.04375	0.0024178629725575985
0.04	0.045	0.002396383234122587
0.04	0.04625	0.002374293347372702
0.04	0.0475	0.0023516392578547293
0.04	0.04875	0.0023284565696519164
0.04	0.05	0.0023047719987391623
0.04	0.05125	0.0022806046309309814
0.04	0.0525	0.0022559670440635954
0.04	0.05375	0.0022308663407530796
0.04	0.055	0.002205305110273966
0.04	0.05625	0.002179282308373547
0.04	0.0575	0.002152794023392333
0.04	0.05875	0.002125834092800814
0.04	0.06	0.0020983945446977127
0.04	0.06125	0.002070465858316153
0.04	0.0625	0.002042037058726463
0.04	0.06375	0.0020130956776395316
0.04	0.065	0.0019836276214085014
0.04	0.06625	0.0019536169875123016
0.04	0.0675	0.001923045864676749
0.04	0.06875	0.0018918941400953297
0.04	0.07	0.0018601393244328563
0.04	0.07125	0.0018277563924324687
0.04	0.0725	0.0017947176266112396
0.04	0.07375	0.0017609924438936355
0.04	0.075	0.0017265471812284692
0.04	0.07625	0.0016913448145969695
0.04	0.0775	0.0016553445873790746
0.04	0.07875	0.0016185015267729985
0.04	0.08	0.0015807658317417398
0.04	0.08125	0.0015420821222370705
0.04	0.0825	0.0015023885490657147
0.04	0.08375	0.0014616157781441935
0.04	0.085	0.001419685888339235
0.04	0.08625	0.001376511266115446
0.04	0.0875	0.0013319936618024612
0.04	0.08875	0.0012860237221234473
0.04	0.09	0.0012384815918885113
0.04	0.09125	0.0011892396920444134
0.04	0.0925	0.0011381697152695756
0.04	0.09375	0.0010851575107303805
0.04	0.095	0.0010301321098272875
0.04	0.09625	0.0009731182457066345
0.04	0.0975	0.0009143219322264947
0.04	0.09875	0.0008542443871115246
0.04	0.1	0.0007937692505006671
0.04	0.10125	0.0007340868907675895
0.04	0.1025	0.0006763349659781317
0.04	0.10375	0.0006211028695933069
0.04	0.105	0.0005681840314053818
0.04	0.10625	0.000516703310129083
0.04	0.1075	0.00046535929973935745
0.04	0.10875	0.000412512312351456
0.04	0.11	0.00035597977400246897
0.04	0.11125	0.00029226162779599367
0.04	0.1125	0.00021367028344830146
0.04	0.11375	8.362526382462968e-5
0.04	0.115	0.0
0.04	0.11625	0.0
0.04	0.1175	0.0
0.04	0.11875	0.0
0.04	0.12	0.0
0.04	0.12125	0.0
0.04	0.1225	0.0
0.04	0.12375	0.0
0.04	0.125	0.0
0.04	0.12625	0.0
0.04	0.1275	0.0
0.04	0.12875	0.0
0.04	0.13	0.0
0.04	0.13125	0.0
0.04	0.1325	0.0
0.04	0.13375	0.0
0.04	0.135	0.0
0.04	0.13625	0.0
0.04	0.1375	0.0
0.04	0.13875	0.0
0.04	0.14	0.0
0.04	0.14125	0.0
0.04	0.1425	0.0
0.04	0.14375	0.0
0.04	0.145	0.0
0.04	0.14625	0.0
0.04	0.1475	0.0
0.04	0.14875	0.0
0.04	0.15	0.0
0.04	0.15125	0.0
0.04	0.1525	0.0
0.04	0.15375	0.0
0.04	0.155	0.0
0.04	0.15625	0.0
0.04	0.1575	0.0
0.04	0.15875	0.0
0.04	0.16	0.0
0.04	0.16125	0.0
0.04	0.1625	0.0
0.04	0.16375	0.0
0.04	0.165	0.0
0.04	0.16625	0.0
0.04	0.1675	0.0
0.04	0.16875	0.0
0.04	0.17	0.0
0.04	0.17125	0.0
0.04	0.1725	0.0
0.04	0.17375	0.0
0.04	0.175	0.0
0.04	0.17625	0.0
0.04	0.1775	0.0
0.04	0.17875	0.0
0.04	0.18	0.0
0.04	0.18125	0.0
0.04	0.1825	0.0
0.04	0.18375	0.0
0.04	0.185	0.0
0.04	0.18625	0.0
0.04	0.1875	0.0
0.04	0.18875	0.0
0.04	0.19	0.0
0.04	0.19125	0.0
0.04	0.1925	0.0
0.04	0.19375	0.0
0.04	0.195	0.0
0.04	0.19625	0.0
0.04	0.1975	0.0
0.04	0.19875	0.0
0.04	0.2	0.0
0.04	0.20125	0.0
0.04	0.2025	0.0
0.04	0.20375	0.0
0.04	0.205	0.0
0.04	0.20625	0.0
0.04	0.2075	0.0
0.04	0.20875	0.0
0.04	0.21	0.0
0.04	0.21125	0.0
0.04	0.2125	0.0
0.04	0.21375	0.0
0.04	0.215	0.0
0.04	0.21625	0.0
0.04	0.2175	0.0
0.04	0.21875	0.0
0.04	0.22	0.0
0.04	0.22125	0.0
0.04	0.2225	0.0
0.04	0.22375	0.0
0.04	0.225	0.0
0.04	0.22625	0.0
0.04	0.2275	0.0
0.04	0.22875	0.0
0.04	0.23	0.0
0.04	0.23125	0.0
0.04	0.2325	0.0
0.04	0.23375	0.0
0.04	0.235	0.0
0.04	0.23625	0.0
0.04	0.2375	0.0
0.04	0.23875	0.0
0.04	0.24	0.0
0.04	0.24125	0.0
0.04	0.2425	0.0
0.04	0.24375	0.0
0.04	0.245	0.0
0.04	0.24625	0.0
0.04	0.2475	0.0
0.04	0.24875	0.0
0.04	0.25	0.0
0.04	0.25125	0.0
0.04	0.2525	0.0
0.04	0.25375	0.0
0.04	0.255	0.0
0.04	0.25625	0.0
0.04	0.2575	0.0
0.04	0.25875	0.0
0.04	0.26	0.0
0.04	0.26125	0.0
0.04	0.2625	0.0
0.04	0.26375	0.0
0.04	0.265	0.0
0.04	0.26625	0.0
0.04	0.2675	0.0
0.04	0.26875	0.0
0.04	0.27	0.0
0.04	0.27125	0.0
0.04	0.2725	0.0
0.04	0.27375	0.0
0.04	0.275	0.0
0.04	0.27625	0.0
0.04	0.2775	0.0
0.04	0.27875	0.0
0.04	0.28	0.0
0.04	0.28125	0.0
0.04	0.2825	0.0
0.04	0.28375	0.0
0.04	0.285	0.0
0.04	0.28625	0.0
0.04	0.2875	0.0
0.04	0.28875	0.0
0.04	0.29	0.0
0.04	0.29125	0.0
0.04	0.2925	0.0
0.04	0.29375	0.0
0.04	0.295	0.0
0.04	0.29625	0.0
0.04	0.2975	0.0
0.04	0.29875	0.0
0.04	0.3	0.0
0.05	0.00125	0.001109848716800878
0.05	0.0025	0.0011896320410276658
0.05	0.00375	0.0012735155082684421
0.05	0.005	0.0013622316542457524
0.05	0.00625	0.0014570484451531015
0.05	0.0075	0.001560208983136888
0.05	0.00875	0.0016756606294400364
0.05	0.01	0.0018097833811103606
0.05	0.01125	0.0019698186317298654
0.05	0.0125	0.0021550612778259044
0.05	0.01375	0.002348648962475127
0.05	0.015	0.0025303004713347855
0.05	0.01625	0.0026903186168060786
0.05	0.0175	0.002827488845179694
0.05	0.01875	0.0029438124647582727
0.05	0.02	0.003041969520524989
0.05	0.02125	0.0031244938915547128
0.05	0.0225	0.003193577019912252
0.05	0.02375	0.003251065181637342
0.05	0.025	0.0032985062305614108
0.05	0.02625	0.0033372016620587027
0.05	0.0275	0.003368252046673212
0.05	0.02875	0.0033925939039604683
0.05	0.03	0.0034110289348388174
0.05	0.03125	0.0034242470968826335
0.05	0.0325	0.003432844897129835
0.05	0.03375	0.003437340012748824
0.05	0.035	0.0034381830929805382
0.05	0.03625	0.003435767385851503
0.05	0.0375	0.0034304366722166064
0.05	0.03875	0.003422491869810911
0.05	0.04	0.0034121965812048817
0.05	0.04125	0.0033997817943731334
0.05	0.0425	0.0033854498958486535
0.05	0.04375	0.003369378120289027
0.05	0.045	0.0033517215336970585
0.05	0.04625	0.003332615627143977
0.05	0.0475	0.0033121785828479538
0.05	0.04875	0.0032905132611696186
0.05	0.05	0.003267708947817949
0.05	0.05125	0.003243842894296588
0.05	0.0525	0.003218981680771035
0.05	0.05375	0.0031931824268577637
0.05	0.055	0.003166493870630697
0.05	0.05625	0.003138957330040022
0.05	0.0575	0.003110607555239577
0.05	0.05875	0.0030814734781418637
0.05	0.06	0.003051578867542646
0.05	0.06125	0.0030209429027356284
0.05	0.0625	0.0029895806841120933
0.05	0.06375	0.0029575037014482374
0.05	0.065	0.0029247202793291544
0.05	0.06625	0.0028912360126035967
0.05	0.0675	0.0028570541959718693
0.05	0.06875	0.002822176241729378
0.05	0.07	0.0027866020717195504
0.05	0.07125	0.002750330464045531
0.05	0.0725	0.0027133593343121043
0.05	0.07375	0.002675685933049858
0.05	0.075	0.0026373069463907586
0.05	0.07625	0.0025982184934137792
0.05	0.0775	0.002558416020939565
0.05	0.07875	0.002517894102721865
0.05	0.08	0.002476646155379151
0.05	0.08125	0.002434664086386032
0.05	0.0825	0.0023919378907326463
0.05	0.08375	0.0023484552117493296
0.05	0.085	0.0023042008784496274
0.05	0.08625	0.002259156427225811
0.05	0.0875	0.002213299609698624
0.05	0.08875	0.0021666038820621837
0.05	0.09	0.0021190378645210904
0.05	0.09125	0.0020705647533684874
0.05	0.0925	0.0020211416625618354
0.05	0.09375	0.0019707188672185307
0.05	0.095	0.0019192389186752014
0.05	0.09625	0.001866635599063829
0.05	0.0975	0.0018128326852901485
0.05	0.09875	0.0017577424980889298
0.05	0.1	0.0017012642268345109
0.05	0.10125	0.0016432820528623586
0.05	0.1025	0.0015836631587606432
0.05	0.10375	0.0015222558415154068
0.05	0.105	0.001458888204105335
0.05	0.10625	0.0013933684000224408
0.05	0.1075	0.001325488366982308
0.05	0.10875	0.0012550347695484605
0.05	0.11	0.0011818139577956597
0.05	0.11125	0.0011057022030051004
0.05	0.1125	0.0010267356210401494
0.05	0.11375	0.0009452439623033632
0.05	0.115	0.000861979339930506
0.05	0.11625	0.0007780772726919149
0.05	0.1175	0.0006946381376530148
0.05	0.11875	0.0006119933754904047
0.05	0.12	0.0005290863529867345
0.05	0.12125	0.00044307146250229033
0.05	0.1225	0.000348180443440078
0.05	0.12375	0.00022939226026282814
0.05	0.125	0.0
0.05	0.12625	0.0
0.05	0.1275	0.0
0.05	0.12875	0.0
0.05	0.13	0.0
0.05	0.13125	0.0
0.05	0.1325	0.0
0.05	0.13375	0.0
0.05	0.135	0.0
0.05	0.13625	0.0
0.05	0.1375	0.0
0.05	0.13875	0.0
0.05	0.14	0.0
0.05	0.14125	0.0
0.05	0.1425	0.0
0.05	0.14375	0.0
0.05	0.145	0.0
0.05	0.14625	0.0
0.05	0.1475	0.0
0.05	0.14875	0.0
0.05	0.15	0.0
0.05	0.15125	0.0
0.05	0.1525	0.0
0.05	0.15375	0.0
0.05	0.155	0.0
0.05	0.15625	0.0
0.05	0.1575	0.0
0.05	0.15875	0.0
0.05	0.16	0.0
0.05	0.16125	0.0
0.05	0.1625	0.0
0.05	0.16375	0.0
0.05	0.165	0.0
0.05	0.16625	0.0
0.05	0.1675	0.0
0.05	0.16875	0.0
0.05	0.17	0.0
0.05	0.17125	0.0
0.05	0.1725	0.0
0.05	0.17375	0.0
0.05	0.175	0.0
0.05	0.17625	0.0
0.05	0.1775	0.0
0.05	0.17875	0.0
0.05	0.18	0.0
0.05	0.18125	0.0
0.05	0.1825	0.0
0.05	0.18375	0.0
0.05	0.185	0.0
0.05	0.18625	0.0
0.05	0.1875	0.0
0.05	0.18875	0.0
0.05	0.19	0.0
0.05	0.19125	0.0
0.05	0.1925	0.0
0.05	0.19375	0.0
0.05	0.195	0.0
0.05	0.19625	0.0
0.05	0.1975	0.0
0.05	0.19875	0.0
0.05	0.2	0.0
0.05	0.20125	0.0
0.05	0.2025	0.0
0.05	0.20375	0.0
0.05	0.205	0.0
0.05	0.20625	0.0
0.05	0.2075	0.0
0.05	0.20875	0.0
0.05	0.21	0.0
0.05	0.21125	0.0
0.05	0.2125	0.0
0.05	0.21375	0.0
0.05	0.215	0.0
0.05	0.21625	0.0
0.05	0.2175	0.0
0.05	0.21875	0.0
0.05	0.22	0.0
0.05	0.22125	0.0
0.05	0.2225	0.0
0.05	0.22375	0.0
0.05	0.225	0.0
0.05	0.22625	0.0
0.05	0.2275	0.0
0.05	0.22875	0.0
0.05	0.23	0.0
0.05	0.23125	0.0
0.05	0.2325	0.0
0.05	0.23375	0.0
0.05	0.235	0.0
0.05	0.23625	0.0
0.05	0.2375	0.0
0.05	0.23875	0.0
0.05	0.24	0.0
0.05	0.24125	0.0
0.05	0.2425	0.0
0.05	0.24375	0.0
0.05	0.245	0.0
0.05	0.24625	0.0
0.05	0.2475	0.0
0.05	0.24875	0.0
0.05	0.25	0.0
0.05	0.25125	0.0
0.05	0.2525	0.0
0.05	0.25375	0.0
0.05	0.255	0.0
0.05	0.25625	0.0
0.05	0.2575	0.0
0.05	0.25875	0.0
0.05	0.26	0.0
0.05	0.26125	0.0
0.05	0.2625	0.0
0.05	0.26375	0.0
0.05	0.265	0.0
0.05	0.26625	0.0
0.05	0.2675	0.0
0.05	0.26875	0.0
0.05	0.27	0.0
0.05	0.27125	0.0
0.05	0.2725	0.0
0.05	0.27375	0.0
0.05	0.275	0.0
0.05	0.27625	0.0
0.05	0.2775	0.0
0.05	0.27875	0.0
0.05	0.28	0.0
0.05	0.28125	0.0
0.05	0.2825	0.0
0.05	0.28375	0.0
0.05	0.285	0.0
0.05	0.28625	0.0
0.05	0.2875	0.0
0.05	0.28875	0.0
0.05	0.29	0.0
0.05	0.29125	0.0
0.05	0.2925	0.0
0.05	0.29375	0.0
0.05	0.295	0.0
0.05	0.29625	0.0
0.05	0.2975	0.0
0.05	0.29875	0.0
0.05	0.3	0.0
0.06	0.00125	0.0013801333472070955
0.06	0.0025	0.0014627159984831363
0.06	0.00375	0.0015487748639713736
0.06	0.005	0.0016388279737468141
0.06	0.00625	0.0017337199203126248
0.06	0.0075	0.0018348557080280243
0.06	0.00875	0.0019445987113321068
0.06	0.01	0.0020668744458612
0.06	0.01125	0.0022077064676987914
0.06	0.0125	0.002374072890293492
0.06	0.01375	0.002567664539855097
0.06	0.015	0.0027769134011178913
0.06	0.01625	0.002982738787991225
0.06	0.0175	0.003172042103855432
0.06	0.01875	0.0033403181446623243
0.06	0.02	0.0034877285077745328
0.06	0.02125	0.003616088538373095
0.06	0.0225	0.00372755355870135
0.06	0.02375	0.0038241621770052584
0.06	0.025	0.003907711985661963
0.06	0.02625	0.00397975077882573
0.06	0.0275	0.004041603023885084
0.06	0.02875	0.004094403318897235
0.06	0.03	0.004139127590995208
0.06	0.03125	0.004176619617228581
0.06	0.0325	0.0042076127952763494
0.06	0.03375	0.0042327477973306
0.06	0.035	0.0042525868602148265
0.06	0.03625	0.004267625392685992
0.06	0.0375	0.004278301461372365
0.06	0.03875	0.004285003600894203
0.06	0.04	0.004288077295849739
0.06	0.04125	0.004287830404275944
0.06	0.0425	0.004284537731767149
0.06	0.04375	0.004278444918749748
0.06	0.045	0.004269771768031348
0.06	0.04625	0.0042587151126032225
0.06	0.0475	0.004245451302659285
0.06	0.04875	0.004230138374877589
0.06	0.05	0.004212917954353333
0.06	0.05125	0.004193916930174644
0.06	0.0525	0.004173248938014439
0.06	0.05375	0.00415101567712488
0.06	0.055	0.004127308084122075
0.06	0.05625	0.004102207381955407
0.06	0.0575	0.004075786019418611
0.06	0.05875	0.0040481085147207885
0.06	0.06	0.004019232215346182
0.06	0.06125	0.003989207984491458
0.06	0.0625	0.00395808082303571
0.06	0.06375	0.003925890432947661
0.06	0.065	0.0038926717266054515
0.06	0.06625	0.0038584552845652782
0.06	0.0675	0.0038232677649462613
0.06	0.06875	0.003787132268844066
0.06	0.07	0.003750068668510458
0.06	0.07125	0.0037120939070070676
0.06	0.0725	0.003673222279323352
0.06	0.07375	0.0036334657040037483
0.06	0.075	0.0035928339917935515
0.06	0.07625	0.003551335113596866
0.06	0.0775	0.0035089754650119167
0.06	0.07875	0.0034657601194530976
0.06	0.08	0.0034216930582203057
0.06	0.08125	0.003376777362547921
0.06	0.0825	0.003331015352642469
0.06	0.08375	0.003284408659568527
0.06	0.085	0.003236958218854112
0.06	0.08625	0.0031886641792754356
0.06	0.0875	0.0031395257249553386
0.06	0.08875	0.003089540814746658
0.06	0.09	0.0030387058473823544
0.06	0.09125	0.0029870152650811254
0.06	0.0925	0.0029344611108472096
0.06	0.09375	0.002881032555097472
0.06	0.095	0.0028267154063349215
0.06	0.09625	0.0027714916170744845
0.06	0.0975	0.00271533879099947
0.06	0.09875	0.0026582296913943725
0.06	0.1	0.0026001317433168806
0.06	0.10125	0.0025410065148532067
0.06	0.1025	0.002480809155837011
0.06	0.10375	0.0024194877666291327
0.06	0.105	0.002356982665685186
0.06	0.10625	0.002293225522488787
0.06	0.1075	0.0022281383264139837
0.06	0.10875	0.0021616321708725107
0.06	0.11	0.002093605856142497
0.06	0.11125	0.0020239443621466154
0.06	0.1125	0.0019525173380459185
0.06	0.11375	0.0018791779444256738
0.06	0.115	0.0018037627533909462
0.06	0.11625	0.001726094136388148
0.06	0.1175	0.00164598797819238
0.06	0.11875	0.0015632722403576423
0.06	0.12	0.0014778267221361768
0.06	0.12125	0.0013896617530463977
0.06	0.1225	0.001299059590328944
0.06	0.12375	0.0012067859729386157
0.06	0.125	0.0011142843730809423
0.06	0.12625	0.001023562569274406
0.06	0.1275	0.0009364613817490851
0.06	0.12875	0.000853658120563155
0.06	0.13	0.0007743289003119551
0.06	0.13125	0.0006965923188521837
0.06	0.1325	0.0006179851041604292
0.06	0.13375	0.0005354417170088673
0.06	0.135	0.00044448490032044096
0.06	0.13625	0.00033627445707626894
0.06	0.1375	0.00017953844305393452
0.06	0.13875	0.0
0.06	0.14	0.0
0.06	0.14125	0.0
0.06	0.1425	0.0
0.06	0.14375	0.0
0.06	0.145	0.0
0.06	0.14625	0.0
0.06	0.1475	0.0
0.06	0.14875	0.0
0.06	0.15	0.0
0.06	0.15125	0.0
0.06	0.1525	0.0
0.06	0.15375	0.0