Variables="alpha" "beta" "omega"
Zone T="1" I=180 J=240
21.0	0.021	-1.0
21.0	0.022	-1.0
21.0	0.023	-1.0
21.0	0.024	-1.0
21.0	0.025	-1.0
21.0	0.026	-1.0
21.0	0.027	-1.0
21.0	0.028	-1.0
21.0	0.029	-1.0
21.0	0.03	-1.0
21.0	0.031	-1.0
21.0	0.032	-1.0
21.0	0.033	-1.0
21.0	0.034	-1.0
21.0	0.035	-1.0
21.0	0.036	-1.0
21.0	0.037	-1.0
21.0	0.038	-1.0
21.0	0.039	-1.0
21.0	0.04	-1.0
21.0	0.041	-1.0
21.0	0.042	-1.0
21.0	0.043	-1.0
21.0	0.044	-1.0
21.0	0.045	-1.0
21.0	0.046	-1.0
21.0	0.047	-1.0
21.0	0.048	-1.0
21.0	0.049	-1.0
21.0	0.05	-1.0
21.0	0.051	-1.0
21.0	0.052	-1.0
21.0	0.053	-1.0
21.0	0.054	-1.0
21.0	0.055	-1.0
21.0	0.056	-1.0
21.0	0.057	-1.0
21.0	0.058	-1.0
21.0	0.059	-1.0
21.0	0.06	-1.0
21.0	0.061	-1.0
21.0	0.062	-1.0
21.0	0.063	-1.0
21.0	0.064	-1.0
21.0	0.065	-1.0
21.0	0.066	-1.0
21.0	0.067	-1.0
21.0	0.068	-1.0
21.0	0.069	-1.0
21.0	0.07	-1.0
21.0	0.071	-1.0
21.0	0.072	-1.0
21.0	0.073	-1.0
21.0	0.074	-1.0
21.0	0.075	-1.0
21.0	0.076	-1.0
21.0	0.077	-1.0
21.0	0.078	-1.0
21.0	0.079	-1.0
21.0	0.08	-1.0
21.0	0.081	-1.0
21.0	0.082	-1.0
21.0	0.083	-1.0
21.0	0.084	-1.0
21.0	0.085	-1.0
21.0	0.086	-1.0
21.0	0.087	-1.0
21.0	0.088	-1.0
21.0	0.089	-1.0
21.0	0.09	-1.0
21.0	0.091	-1.0
21.0	0.092	-1.0
21.0	0.093	-1.0
21.0	0.094	-1.0
21.0	0.095	-1.0
21.0	0.096	-1.0
21.0	0.097	-1.0
21.0	0.098	-1.0
21.0	0.099	-1.0
21.0	0.1	-1.0
21.0	0.101	-1.0
21.0	0.102	-1.0
21.0	0.103	-1.0
21.0	0.104	-1.0
21.0	0.105	-1.0
21.0	0.106	-1.0
21.0	0.107	-1.0
21.0	0.108	-1.0
21.0	0.109	-1.0
21.0	0.11	-1.0
21.0	0.111	-1.0
21.0	0.112	-1.0
21.0	0.113	-1.0
21.0	0.114	-1.0
21.0	0.115	-1.0
21.0	0.116	-1.0
21.0	0.117	-1.0
21.0	0.118	-1.0
21.0	0.119	-1.0
21.0	0.12	-1.0
21.0	0.121	-1.0
21.0	0.122	-1.0
21.0	0.123	-1.0
21.0	0.124	-1.0
21.0	0.125	-1.0
21.0	0.126	-1.0
21.0	0.127	-1.0
21.0	0.128	-1.0
21.0	0.129	-1.0
21.0	0.13	-1.0
21.0	0.131	-1.0
21.0	0.132	-1.0
21.0	0.133	-1.0
21.0	0.134	-1.0
21.0	0.135	-1.0
21.0	0.136	-1.0
21.0	0.137	-1.0
21.0	0.138	-1.0
21.0	0.139	-1.0
21.0	0.14	-1.0
21.0	0.141	-1.0
21.0	0.142	-1.0
21.0	0.143	-1.0
21.0	0.144	-1.0
21.0	0.145	-1.0
21.0	0.146	-1.0
21.0	0.147	-1.0
21.0	0.148	-1.0
21.0	0.149	-1.0
21.0	0.15	-1.0
21.0	0.151	-1.0
21.0	0.152	-1.0
21.0	0.153	-1.0
21.0	0.154	-1.0
21.0	0.155	-1.0
21.0	0.156	-1.0
21.0	0.157	-1.0
21.0	0.158	-1.0
21.0	0.159	-1.0
21.0	0.16	-1.0
21.0	0.161	-1.0
21.0	0.162	-1.0
21.0	0.163	-1.0
21.0	0.164	-1.0
21.0	0.165	-1.0
21.0	0.166	-1.0
21.0	0.167	-1.0
21.0	0.168	-1.0
21.0	0.169	-1.0
21.0	0.17	-1.0
21.0	0.171	-1.0
21.0	0.172	-1.0
21.0	0.173	-1.0
21.0	0.174	-1.0
21.0	0.175	-1.0
21.0	0.176	-1.0
21.0	0.177	-1.0
21.0	0.178	-1.0
21.0	0.179	-1.0
21.0	0.18	-1.0
21.0	0.181	-1.0
21.0	0.182	-1.0
21.0	0.183	-1.0
21.0	0.184	-1.0
21.0	0.185	-1.0
21.0	0.186	-1.0
21.0	0.187	-1.0
21.0	0.188	-1.0
21.0	0.189	-1.0
21.0	0.19	-1.0
21.0	0.191	-1.0
21.0	0.192	-1.0
21.0	0.193	-1.0
21.0	0.194	-1.0
21.0	0.195	-1.0
21.0	0.196	-1.0
21.0	0.197	-1.0
21.0	0.198	-1.0
21.0	0.199	-1.0
21.0	0.2	-1.0
23.0	0.021	-1.0
23.0	0.022	-1.0
23.0	0.023	-1.0
23.0	0.024	-1.0
23.0	0.025	-1.0
23.0	0.026	-1.0
23.0	0.027	-1.0
23.0	0.028	-1.0
23.0	0.029	-1.0
23.0	0.03	-1.0
23.0	0.031	-1.0
23.0	0.032	-1.0
23.0	0.033	-1.0
23.0	0.034	-1.0
23.0	0.035	-1.0
23.0	0.036	-1.0
23.0	0.037	-1.0
23.0	0.038	-1.0
23.0	0.039	-1.0
23.0	0.04	-1.0
23.0	0.041	-1.0
23.0	0.042	-1.0
23.0	0.043	-1.0
23.0	0.044	-1.0
23.0	0.045	-1.0
23.0	0.046	-1.0
23.0	0.047	-1.0
23.0	0.048	-1.0
23.0	0.049	-1.0
23.0	0.05	-1.0
23.0	0.051	-1.0
23.0	0.052	-1.0
23.0	0.053	-1.0
23.0	0.054	-1.0
23.0	0.055	-1.0
23.0	0.056	-1.0
23.0	0.057	-1.0
23.0	0.058	-1.0
23.0	0.059	-1.0
23.0	0.06	-1.0
23.0	0.061	-1.0
23.0	0.062	-1.0
23.0	0.063	-1.0
23.0	0.064	-1.0
23.0	0.065	-1.0
23.0	0.066	-1.0
23.0	0.067	-1.0
23.0	0.068	-1.0
23.0	0.069	-1.0
23.0	0.07	-1.0
23.0	0.071	-1.0
23.0	0.072	-1.0
23.0	0.073	-1.0
23.0	0.074	-1.0
23.0	0.075	-1.0
23.0	0.076	-1.0
23.0	0.077	-1.0
23.0	0.078	-1.0
23.0	0.079	-1.0
23.0	0.08	-1.0
23.0	0.081	-1.0
23.0	0.082	-1.0
23.0	0.083	-1.0
23.0	0.084	-1.0
23.0	0.085	-1.0
23.0	0.086	-1.0
23.0	0.087	-1.0
23.0	0.088	-1.0
23.0	0.089	-1.0
23.0	0.09	-1.0
23.0	0.091	-1.0
23.0	0.092	-1.0
23.0	0.093	-1.0
23.0	0.094	-1.0
23.0	0.095	-1.0
23.0	0.096	-1.0
23.0	0.097	-1.0
23.0	0.098	-1.0
23.0	0.099	-1.0
23.0	0.1	-1.0
23.0	0.101	-1.0
23.0	0.102	-1.0
23.0	0.103	-1.0
23.0	0.104	-1.0
23.0	0.105	-1.0
23.0	0.106	-1.0
23.0	0.107	-1.0
23.0	0.108	-1.0
23.0	0.109	-1.0
23.0	0.11	-1.0
23.0	0.111	-1.0
23.0	0.112	-1.0
23.0	0.113	-1.0
23.0	0.114	-1.0
23.0	0.115	-1.0
23.0	0.116	-1.0
23.0	0.117	-1.0
23.0	0.118	-1.0
23.0	0.119	-1.0
23.0	0.12	-1.0
23.0	0.121	-1.0
23.0	0.122	-1.0
23.0	0.123	-1.0
23.0	0.124	-1.0
23.0	0.125	-1.0
23.0	0.126	-1.0
23.0	0.127	-1.0
23.0	0.128	-1.0
23.0	0.129	-1.0
23.0	0.13	-1.0
23.0	0.131	-1.0
23.0	0.132	-1.0
23.0	0.133	-1.0
23.0	0.134	-1.0
23.0	0.135	-1.0
23.0	0.136	-1.0
23.0	0.137	-1.0
23.0	0.138	-1.0
23.0	0.139	-1.0
23.0	0.14	-1.0
23.0	0.141	-1.0
23.0	0.142	-1.0
23.0	0.143	-1.0
23.0	0.144	-1.0
23.0	0.145	-1.0
23.0	0.146	-1.0
23.0	0.147	-1.0
23.0	0.148	-1.0
23.0	0.149	-1.0
23.0	0.15	-1.0
23.0	0.151	-1.0
23.0	0.152	-1.0
23.0	0.153	-1.0
23.0	0.154	-1.0
23.0	0.155	-1.0
23.0	0.156	-1.0
23.0	0.157	-1.0
23.0	0.158	-1.0
23.0	0.159	-1.0
23.0	0.16	-1.0
23.0	0.161	-1.0
23.0	0.162	-1.0
23.0	0.163	-1.0
23.0	0.164	-1.0
23.0	0.165	-1.0
23.0	0.166	-1.0
23.0	0.167	-1.0
23.0	0.168	-1.0
23.0	0.169	-1.0
23.0	0.17	-1.0
23.0	0.171	-1.0
23.0	0.172	-1.0
23.0	0.173	-1.0
23.0	0.174	-1.0
23.0	0.175	-1.0
23.0	0.176	-1.0
23.0	0.177	-1.0
23.0	0.178	-1.0
23.0	0.179	-1.0
23.0	0.18	-1.0
23.0	0.181	-1.0
23.0	0.182	-1.0
23.0	0.183	-1.0
23.0	0.184	-1.0
23.0	0.185	-1.0
23.0	0.186	-1.0
23.0	0.187	-1.0
23.0	0.188	-1.0
23.0	0.189	-1.0
23.0	0.19	-1.0
23.0	0.191	-1.0
23.0	0.192	-1.0
23.0	0.193	-1.0
23.0	0.194	-1.0
23.0	0.195	-1.0
23.0	0.196	-1.0
23.0	0.197	-1.0
23.0	0.198	-1.0
23.0	0.199	-1.0
23.0	0.2	-1.0
25.0	0.021	-1.0
25.0	0.022	-1.0
25.0	0.023	-1.0
25.0	0.024	-1.0
25.0	0.025	-1.0
25.0	0.026	-1.0
25.0	0.027	-1.0
25.0	0.028	-1.0
25.0	0.029	-1.0
25.0	0.03	-1.0
25.0	0.031	-1.0
25.0	0.032	-1.0
25.0	0.033	-1.0
25.0	0.034	-1.0
25.0	0.035	-1.0
25.0	0.036	-1.0
25.0	0.037	-1.0
25.0	0.038	-1.0
25.0	0.039	-1.0
25.0	0.04	-1.0
25.0	0.041	-1.0
25.0	0.042	-1.0
25.0	0.043	-1.0
25.0	0.044	-1.0
25.0	0.045	-1.0
25.0	0.046	-1.0
25.0	0.047	-1.0
25.0	0.048	-1.0
25.0	0.049	-1.0
25.0	0.05	-1.0
25.0	0.051	-1.0
25.0	0.052	-1.0
25.0	0.053	-1.0
25.0	0.054	-1.0
25.0	0.055	-1.0
25.0	0.056	-1.0
25.0	0.057	-1.0
25.0	0.058	-1.0
25.0	0.059	-1.0
25.0	0.06	-1.0
25.0	0.061	-1.0
25.0	0.062	-1.0
25.0	0.063	-1.0
25.0	0.064	-1.0
25.0	0.065	-1.0
25.0	0.066	-1.0
25.0	0.067	-1.0
25.0	0.068	-1.0
25.0	0.069	-1.0
25.0	0.07	-1.0
25.0	0.071	-1.0
25.0	0.072	-1.0
25.0	0.073	-1.0
25.0	0.074	-1.0
25.0	0.075	-1.0
25.0	0.076	-1.0
25.0	0.077	-1.0
25.0	0.078	-1.0
25.0	0.079	-1.0
25.0	0.08	-1.0
25.0	0.081	-1.0
25.0	0.082	-1.0
25.0	0.083	-1.0
25.0	0.084	-1.0
25.0	0.085	-1.0
25.0	0.086	-1.0
25.0	0.087	-1.0
25.0	0.088	-1.0
25.0	0.089	-1.0
25.0	0.09	-1.0
25.0	0.091	-1.0
25.0	0.092	-1.0
25.0	0.093	-1.0
25.0	0.094	-1.0
25.0	0.095	-1.0
25.0	0.096	-1.0
25.0	0.097	-1.0
25.0	0.098	-1.0
25.0	0.099	-1.0
25.0	0.1	-1.0
25.0	0.101	-1.0
25.0	0.102	-1.0
25.0	0.103	-1.0
25.0	0.104	-1.0
25.0	0.105	-1.0
25.0	0.106	-1.0
25.0	0.107	-1.0
25.0	0.108	-1.0
25.0	0.109	-1.0
25.0	0.11	-1.0
25.0	0.111	-1.0
25.0	0.112	-1.0
25.0	0.113	-1.0
25.0	0.114	-1.0
25.0	0.115	-1.0
25.0	0.116	-1.0
25.0	0.117	-1.0
25.0	0.118	-1.0
25.0	0.119	-1.0
25.0	0.12	-1.0
25.0	0.121	-1.0
25.0	0.122	-1.0
25.0	0.123	-1.0
25.0	0.124	-1.0
25.0	0.125	-1.0
25.0	0.126	-1.0
25.0	0.127	-1.0
25.0	0.128	-1.0
25.0	0.129	-1.0
25.0	0.13	-1.0
25.0	0.131	-1.0
25.0	0.132	-1.0
25.0	0.133	-1.0
25.0	0.134	-1.0
25.0	0.135	-1.0
25.0	0.136	-1.0
25.0	0.137	-1.0
25.0	0.138	-1.0
25.0	0.139	-1.0
25.0	0.14	-1.0
25.0	0.141	-1.0
25.0	0.142	-1.0
25.0	0.143	-1.0
25.0	0.144	-1.0
25.0	0.145	-1.0
25.0	0.146	-1.0
25.0	0.147	-1.0
25.0	0.148	-1.0
25.0	0.149	-1.0
25.0	0.15	-1.0
25.0	0.151	-1.0
25.0	0.152	-1.0
25.0	0.153	-1.0
25.0	0.154	-1.0
25.0	0.155	-1.0
25.0	0.156	-1.0
25.0	0.157	-1.0
25.0	0.158	-1.0
25.0	0.159	-1.0
25.0	0.16	-1.0
25.0	0.161	-1.0
25.0	0.162	-1.0
25.0	0.163	-1.0
25.0	0.164	-1.0
25.0	0.165	-1.0
25.0	0.166	-1.0
25.0	0.167	-1.0
25.0	0.168	-1.0
25.0	0.169	-1.0
25.0	0.17	-1.0
25.0	0.171	-1.0
25.0	0.172	-1.0
25.0	0.173	-1.0
25.0	0.174	-1.0
25.0	0.175	-1.0
25.0	0.176	-1.0
25.0	0.177	-1.0
25.0	0.178	-1.0
25.0	0.179	-1.0
25.0	0.18	-1.0
25.0	0.181	-1.0
25.0	0.182	-1.0
25.0	0.183	-1.0
25.0	0.184	-1.0
25.0	0.185	-1.0
25.0	0.186	-1.0
25.0	0.187	-1.0
25.0	0.188	-1.0
25.0	0.189	-1.0
25.0	0.19	-1.0
25.0	0.191	-1.0
25.0	0.192	-1.0
25.0	0.193	-1.0
25.0	0.194	-1.0
25.0	0.195	-1.0
25.0	0.196	-1.0
25.0	0.197	-1.0
25.0	0.198	-1.0
25.0	0.199	-1.0
25.0	0.2	-1.0
27.0	0.021	-1.0
27.0	0.022	-1.0
27.0	0.023	-1.0
27.0	0.024	-1.0
27.0	0.025	-1.0
27.0	0.026	-1.0
27.0	0.027	-1.0
27.0	0.028	-1.0
27.0	0.029	-1.0
27.0	0.03	-1.0
27.0	0.031	-1.0
27.0	0.032	-1.0
27.0	0.033	-1.0
27.0	0.034	-1.0
27.0	0.035	-1.0
27.0	0.036	-1.0
27.0	0.037	-1.0
27.0	0.038	-1.0
27.0	0.039	-1.0
27.0	0.04	-1.0
27.0	0.041	-1.0
27.0	0.042	-1.0
27.0	0.043	-1.0
27.0	0.044	-1.0
27.0	0.045	-1.0
27.0	0.046	-1.0
27.0	0.047	-1.0
27.0	0.048	-1.0
27.0	0.049	-1.0
27.0	0.05	-1.0
27.0	0.051	-1.0
27.0	0.052	-1.0
27.0	0.053	-1.0
27.0	0.054	-1.0
27.0	0.055	-1.0
27.0	0.056	-1.0
27.0	0.057	-1.0
27.0	0.058	-1.0
27.0	0.059	-1.0
27.0	0.06	-1.0
27.0	0.061	-1.0
27.0	0.062	-1.0
27.0	0.063	-1.0
27.0	0.064	-1.0
27.0	0.065	-1.0
27.0	0.066	-1.0
27.0	0.067	-1.0
27.0	0.068	-1.0
27.0	0.069	-1.0
27.0	0.07	-1.0
27.0	0.071	-1.0
27.0	0.072	-1.0
27.0	0.073	-1.0
27.0	0.074	-1.0
27.0	0.075	-1.0
27.0	0.076	-1.0
27.0	0.077	-1.0
27.0	0.078	-1.0
27.0	0.079	-1.0
27.0	0.08	-1.0
27.0	0.081	-1.0
27.0	0.082	-1.0
27.0	0.083	-1.0
27.0	0.084	-1.0
27.0	0.085	-1.0
27.0	0.086	-1.0
27.0	0.087	-1.0
27.0	0.088	-1.0
27.0	0.089	-1.0
27.0	0.09	-1.0
27.0	0.091	-1.0
27.0	0.092	-1.0
27.0	0.093	-1.0
27.0	0.094	-1.0
27.0	0.095	-1.0
27.0	0.096	-1.0
27.0	0.097	-1.0
27.0	0.098	-1.0
27.0	0.099	-1.0
27.0	0.1	-1.0
27.0	0.101	-1.0
27.0	0.102	-1.0
27.0	0.103	-1.0
27.0	0.104	-1.0
27.0	0.105	-1.0
27.0	0.106	-1.0
27.0	0.107	-1.0
27.0	0.108	-1.0
27.0	0.109	-1.0
27.0	0.11	-1.0
27.0	0.111	-1.0
27.0	0.112	-1.0
27.0	0.113	-1.0
27.0	0.114	-1.0
27.0	0.115	-1.0
27.0	0.116	-1.0
27.0	0.117	-1.0
27.0	0.118	-1.0
27.0	0.119	-1.0
27.0	0.12	-1.0
27.0	0.121	-1.0
27.0	0.122	-1.0
27.0	0.123	-1.0
27.0	0.124	-1.0
27.0	0.125	-1.0
27.0	0.126	-1.0
27.0	0.127	-1.0
27.0	0.128	-1.0
27.0	0.129	-1.0
27.0	0.13	-1.0
27.0	0.131	-1.0
27.0	0.132	-1.0
27.0	0.133	-1.0
27.0	0.134	-1.0
27.0	0.135	-1.0
27.0	0.136	-1.0
27.0	0.137	-1.0
27.0	0.138	-1.0
27.0	0.139	-1.0
27.0	0.14	-1.0
27.0	0.141	-1.0
27.0	0.142	-1.0
27.0	0.143	-1.0
27.0	0.144	-1.0
27.0	0.145	-1.0
27.0	0.146	-1.0
27.0	0.147	-1.0
27.0	0.148	-1.0
27.0	0.149	-1.0
27.0	0.15	-1.0
27.0	0.151	-1.0
27.0	0.152	-1.0
27.0	0.153	-1.0
27.0	0.154	-1.0
27.0	0.155	-1.0
27.0	0.156	-1.0
27.0	0.157	-1.0
27.0	0.158	-1.0
27.0	0.159	-1.0
27.0	0.16	-1.0
27.0	0.161	-1.0
27.0	0.162	-1.0
27.0	0.163	-1.0
27.0	0.164	-1.0
27.0	0.165	-1.0
27.0	0.166	-1.0
27.0	0.167	-1.0
27.0	0.168	-1.0
27.0	0.169	-1.0
27.0	0.17	-1.0
27.0	0.171	-1.0
27.0	0.172	-1.0
27.0	0.173	-1.0
27.0	0.174	-1.0
27.0	0.175	-1.0
27.0	0.176	-1.0
27.0	0.177	-1.0
27.0	0.178	-1.0
27.0	0.179	-1.0
27.0	0.18	-1.0
27.0	0.181	-1.0
27.0	0.182	-1.0
27.0	0.183	-1.0
27.0	0.184	-1.0
27.0	0.185	-1.0
27.0	0.186	-1.0
27.0	0.187	-1.0
27.0	0.188	-1.0
27.0	0.189	-1.0
27.0	0.19	-1.0
27.0	0.191	-1.0
27.0	0.192	-1.0
27.0	0.193	-1.0
27.0	0.194	-1.0
27.0	0.195	-1.0
27.0	0.196	-1.0
27.0	0.197	-1.0
27.0	0.198	-1.0
27.0	0.199	-1.0
27.0	0.2	-1.0
29.0	0.021	-1.0
29.0	0.022	-1.0
29.0	0.023	-1.0
29.0	0.024	-1.0
29.0	0.025	-1.0
29.0	0.026	-1.0
29.0	0.027	-1.0
29.0	0.028	-1.0
29.0	0.029	-1.0
29.0	0.03	-1.0
29.0	0.031	-1.0
29.0	0.032	-1.0
29.0	0.033	-1.0
29.0	0.034	-1.0
29.0	0.035	-1.0
29.0	0.036	-1.0
29.0	0.037	-1.0
29.0	0.038	-1.0
29.0	0.039	-1.0
29.0	0.04	-1.0
29.0	0.041	-1.0
29.0	0.042	-1.0
29.0	0.043	-1.0
29.0	0.044	-1.0
29.0	0.045	-1.0
29.0	0.046	-1.0
29.0	0.047	-1.0
29.0	0.048	-1.0
29.0	0.049	-1.0
29.0	0.05	-1.0
29.0	0.051	-1.0
29.0	0.052	-1.0
29.0	0.053	-1.0
29.0	0.054	-1.0
29.0	0.055	-1.0
29.0	0.056	-1.0
29.0	0.057	-1.0
29.0	0.058	-1.0
29.0	0.059	-1.0
29.0	0.06	-1.0
29.0	0.061	-1.0
29.0	0.062	-1.0
29.0	0.063	-1.0
29.0	0.064	-1.0
29.0	0.065	-1.0
29.0	0.066	-1.0
29.0	0.067	-1.0
29.0	0.068	-1.0
29.0	0.069	-1.0
29.0	0.07	-1.0
29.0	0.071	-1.0
29.0	0.072	-1.0
29.0	0.073	-1.0
29.0	0.074	-1.0
29.0	0.075	-1.0
29.0	0.076	-1.0
29.0	0.077	-1.0
29.0	0.078	-1.0
29.0	0.079	-1.0
29.0	0.08	-1.0
29.0	0.081	-1.0
29.0	0.082	-1.0
29.0	0.083	-1.0
29.0	0.084	-1.0
29.0	0.085	-1.0
29.0	0.086	-1.0
29.0	0.087	-1.0
29.0	0.088	-1.0
29.0	0.089	-1.0
29.0	0.09	-1.0
29.0	0.091	-1.0
29.0	0.092	-1.0
29.0	0.093	-1.0
29.0	0.094	-1.0
29.0	0.095	-1.0
29.0	0.096	-1.0
29.0	0.097	-1.0
29.0	0.098	-1.0
29.0	0.099	-1.0
29.0	0.1	-1.0
29.0	0.101	-1.0
29.0	0.102	-1.0
29.0	0.103	-1.0
29.0	0.104	-1.0
29.0	0.105	-1.0
29.0	0.106	-1.0
29.0	0.107	-1.0
29.0	0.108	-1.0
29.0	0.109	-1.0
29.0	0.11	-1.0
29.0	0.111	-1.0
29.0	0.112	-1.0
29.0	0.113	-1.0
29.0	0.114	-1.0
29.0	0.115	-1.0
29.0	0.116	-1.0
29.0	0.117	-1.0
29.0	0.118	-1.0
29.0	0.119	-1.0
29.0	0.12	-1.0
29.0	0.121	-1.0
29.0	0.122	-1.0
29.0	0.123	-1.0
29.0	0.124	-1.0
29.0	0.125	-1.0
29.0	0.126	-1.0
29.0	0.127	-1.0
29.0	0.128	-1.0
29.0	0.129	-1.0
29.0	0.13	-1.0
29.0	0.131	-1.0
29.0	0.132	-1.0
29.0	0.133	-1.0
29.0	0.134	-1.0
29.0	0.135	-1.0
29.0	0.136	-1.0
29.0	0.137	-1.0
29.0	0.138	-1.0
29.0	0.139	-1.0
29.0	0.14	-1.0
29.0	0.141	-1.0
29.0	0.142	-1.0
29.0	0.143	-1.0
29.0	0.144	-1.0
29.0	0.145	-1.0
29.0	0.146	-1.0
29.0	0.147	-1.0
29.0	0.148	-1.0
29.0	0.149	-1.0
29.0	0.15	-1.0
29.0	0.151	-1.0
29.0	0.152	-1.0
29.0	0.153	-1.0
29.0	0.154	-1.0
29.0	0.155	-1.0
29.0	0.156	-1.0
29.0	0.157	-1.0
29.0	0.158	-1.0
29.0	0.159	-1.0
29.0	0.16	-1.0
29.0	0.161	-1.0
29.0	0.162	-1.0
29.0	0.163	-1.0
29.0	0.164	-1.0
29.0	0.165	-1.0
29.0	0.166	-1.0
29.0	0.167	-1.0
29.0	0.168	-1.0
29.0	0.169	-1.0
29.0	0.17	-1.0
29.0	0.171	-1.0
29.0	0.172	-1.0
29.0	0.173	-1.0
29.0	0.174	-1.0
29.0	0.175	-1.0
29.0	0.176	-1.0
29.0	0.177	-1.0
29.0	0.178	-1.0
29.0	0.179	-1.0
29.0	0.18	-1.0
29.0	0.181	-1.0
29.0	0.182	-1.0
29.0	0.183	-1.0
29.0	0.184	-1.0
29.0	0.185	-1.0
29.0	0.186	-1.0
29.0	0.187	-1.0
29.0	0.188	-1.0
29.0	0.189	-1.0
29.0	0.19	-1.0
29.0	0.191	-1.0
29.0	0.192	-1.0
29.0	0.193	-1.0
29.0	0.194	-1.0
29.0	0.195	-1.0
29.0	0.196	-1.0
29.0	0.197	-1.0
29.0	0.198	-1.0
29.0	0.199	-1.0
29.0	0.2	-1.0
31.0	0.021	-1.0
31.0	0.022	-1.0
31.0	0.023	-1.0
31.0	0.024	-1.0
31.0	0.025	-1.0
31.0	0.026	-1.0
31.0	0.027	-1.0
31.0	0.028	-1.0
31.0	0.029	-1.0
31.0	0.03	-1.0
31.0	0.031	-1.0
31.0	0.032	-1.0
31.0	0.033	-1.0
31.0	0.034	-1.0
31.0	0.035	-1.0
31.0	0.036	-1.0
31.0	0.037	-1.0
31.0	0.038	-1.0
31.0	0.039	-1.0
31.0	0.04	-1.0
31.0	0.041	-1.0
31.0	0.042	-1.0
31.0	0.043	-1.0
31.0	0.044	-1.0
31.0	0.045	-1.0
31.0	0.046	-1.0
31.0	0.047	-1.0
31.0	0.048	-1.0
31.0	0.049	-1.0
31.0	0.05	-1.0
31.0	0.051	-1.0
31.0	0.052	-1.0
31.0	0.053	-1.0
31.0	0.054	-1.0
31.0	0.055	-1.0
31.0	0.056	-1.0
31.0	0.057	-1.0
31.0	0.058	-1.0
31.0	0.059	-1.0
31.0	0.06	-1.0
31.0	0.061	-1.0
31.0	0.062	-1.0
31.0	0.063	-1.0
31.0	0.064	-1.0
31.0	0.065	-1.0
31.0	0.066	-1.0
31.0	0.067	-1.0
31.0	0.068	-1.0
31.0	0.069	-1.0
31.0	0.07	-1.0
31.0	0.071	-1.0
31.0	0.072	-1.0
31.0	0.073	-1.0
31.0	0.074	-1.0
31.0	0.075	-1.0
31.0	0.076	-1.0
31.0	0.077	-1.0
31.0	0.078	-1.0
31.0	0.079	-1.0
31.0	0.08	-1.0
31.0	0.081	-1.0
31.0	0.082	-1.0
31.0	0.083	-1.0
31.0	0.084	-1.0
31.0	0.085	-1.0
31.0	0.086	-1.0
31.0	0.087	-1.0
31.0	0.088	-1.0
31.0	0.089	-1.0
31.0	0.09	-1.0
31.0	0.091	-1.0
31.0	0.092	-1.0
31.0	0.093	-1.0
31.0	0.094	-1.0
31.0	0.095	-1.0
31.0	0.096	-1.0
31.0	0.097	-1.0
31.0	0.098	-1.0
31.0	0.099	-1.0
31.0	0.1	-1.0
31.0	0.101	-1.0
31.0	0.102	-1.0
31.0	0.103	-1.0
31.0	0.104	-1.0
31.0	0.105	-1.0
31.0	0.106	-1.0
31.0	0.107	-1.0
31.0	0.108	-1.0
31.0	0.109	-1.0
31.0	0.11	-1.0
31.0	0.111	-1.0
31.0	0.112	-1.0
31.0	0.113	-1.0
31.0	0.114	-1.0
31.0	0.115	-1.0
31.0	0.116	-1.0
31.0	0.117	-1.0
31.0	0.118	-1.0
31.0	0.119	-1.0
31.0	0.12	-1.0
31.0	0.121	0.008822214439950161
31.0	0.122	0.0040145433113159415
31.0	0.123	-1.0
31.0	0.124	-1.0
31.0	0.125	-1.0
31.0	0.126	-1.0
31.0	0.127	-1.0
31.0	0.128	-1.0
31.0	0.129	-1.0
31.0	0.13	-1.0
31.0	0.131	-1.0
31.0	0.132	-1.0
31.0	0.133	-1.0
31.0	0.134	-1.0
31.0	0.135	-1.0
31.0	0.136	-1.0
31.0	0.137	-1.0
31.0	0.138	-1.0
31.0	0.139	-1.0
31.0	0.14	-1.0
31.0	0.141	-1.0
31.0	0.142	-1.0
31.0	0.143	-1.0
31.0	0.144	-1.0
31.0	0.145	-1.0
31.0	0.146	-1.0
31.0	0.147	-1.0
31.0	0.148	-1.0
31.0	0.149	-1.0
31.0	0.15	-1.0
31.0	0.151	-1.0
31.0	0.152	-1.0
31.0	0.153	-1.0
31.0	0.154	-1.0
31.0	0.155	-1.0
31.0	0.156	-1.0
31.0	0.157	-1.0
31.0	0.158	-1.0
31.0	0.159	-1.0
31.0	0.16	-1.0
31.0	0.161	-1.0
31.0	0.162	-1.0
31.0	0.163	-1.0
31.0	0.164	-1.0
31.0	0.165	-1.0
31.0	0.166	-1.0
31.0	0.167	-1.0
31.0	0.168	-1.0
31.0	0.169	-1.0
31.0	0.17	-1.0
31.0	0.171	-1.0
31.0	0.172	-1.0
31.0	0.173	-1.0
31.0	0.174	-1.0
31.0	0.175	-1.0
31.0	0.176	-1.0
31.0	0.177	-1.0
31.0	0.178	-1.0
31.0	0.179	-1.0
31.0	0.18	-1.0
31.0	0.181	-1.0
31.0	0.182	-1.0
31.0	0.183	-1.0
31.0	0.184	-1.0
31.0	0.185	-1.0
31.0	0.186	-1.0
31.0	0.187	-1.0
31.0	0.188	-1.0
31.0	0.189	-1.0
31.0	0.19	-1.0
31.0	0.191	-1.0
31.0	0.192	-1.0
31.0	0.193	-1.0
31.0	0.194	-1.0
31.0	0.195	-1.0
31.0	0.196	-1.0
31.0	0.197	-1.0
31.0	0.198	-1.0
31.0	0.199	-1.0
31.0	0.2	-1.0
33.0	0.021	-1.0
33.0	0.022	-1.0
33.0	0.023	-1.0
33.0	0.024	-1.0
33.0	0.025	-1.0
33.0	0.026	-1.0
33.0	0.027	-1.0
33.0	0.028	-1.0
33.0	0.029	-1.0
33.0	0.03	-1.0
33.0	0.031	-1.0
33.0	0.032	-1.0
33.0	0.033	-1.0
33.0	0.034	-1.0
33.0	0.035	-1.0
33.0	0.036	-1.0
33.0	0.037	-1.0
33.0	0.038	-1.0
33.0	0.039	-1.0
33.0	0.04	-1.0
33.0	0.041	-1.0
33.0	0.042	-1.0
33.0	0.043	-1.0
33.0	0.044	-1.0
33.0	0.045	-1.0
33.0	0.046	-1.0
33.0	0.047	-1.0
33.0	0.048	-1.0
33.0	0.049	-1.0
33.0	0.05	-1.0
33.0	0.051	-1.0
33.0	0.052	-1.0
33.0	0.053	-1.0
33.0	0.054	-1.0
33.0	0.055	-1.0
33.0	0.056	-1.0
33.0	0.057	-1.0
33.0	0.058	-1.0
33.0	0.059	-1.0
33.0	0.06	-1.0
33.0	0.061	-1.0
33.0	0.062	-1.0
33.0	0.063	-1.0
33.0	0.064	-1.0
33.0	0.065	-1.0
33.0	0.066	-1.0
33.0	0.067	-1.0
33.0	0.068	-1.0
33.0	0.069	-1.0
33.0	0.07	-1.0
33.0	0.071	-1.0
33.0	0.072	-1.0
33.0	0.073	-1.0
33.0	0.074	-1.0
33.0	0.075	-1.0
33.0	0.076	-1.0
33.0	0.077	-1.0
33.0	0.078	-1.0
33.0	0.079	-1.0
33.0	0.08	-1.0
33.0	0.081	-1.0
33.0	0.082	-1.0
33.0	0.083	-1.0
33.0	0.084	-1.0
33.0	0.085	-1.0
33.0	0.086	-1.0
33.0	0.087	-1.0
33.0	0.088	-1.0
33.0	0.089	-1.0
33.0	0.09	-1.0
33.0	0.091	-1.0
33.0	0.092	-1.0
33.0	0.093	-1.0
33.0	0.094	-1.0
33.0	0.095	-1.0
33.0	0.096	-1.0
33.0	0.097	-1.0
33.0	0.098	-1.0
33.0	0.099	-1.0
33.0	0.1	-1.0
33.0	0.101	-1.0
33.0	0.102	-1.0
33.0	0.103	-1.0
33.0	0.104	-1.0
33.0	0.105	-1.0
33.0	0.106	-1.0
33.0	0.107	-1.0
33.0	0.108	-1.0
33.0	0.109	-1.0
33.0	0.11	-1.0
33.0	0.111	-1.0
33.0	0.112	-1.0
33.0	0.113	-1.0
33.0	0.114	0.002934953918670748
33.0	0.115	0.011682423209813483
33.0	0.116	0.02046519308497866
33.0	0.117	0.02917334875554624
33.0	0.118	0.03771582123273888
33.0	0.119	0.04239651767814552
33.0	0.12	0.035931318945511326
33.0	0.121	0.029884373509260296
33.0	0.122	0.024224339219963552
33.0	0.123	0.018915724996271463
33.0	0.124	0.013923076961781624
33.0	0.125	0.009213172480467284
33.0	0.126	0.004755961664755964
33.0	0.127	0.000524799505474993
33.0	0.128	-1.0
33.0	0.129	-1.0
33.0	0.13	-1.0
33.0	0.131	-1.0
33.0	0.132	-1.0
33.0	0.133	-1.0
33.0	0.134	-1.0
33.0	0.135	-1.0
33.0	0.136	-1.0
33.0	0.137	-1.0
33.0	0.138	-1.0
33.0	0.139	-1.0
33.0	0.14	-1.0
33.0	0.141	-1.0
33.0	0.142	-1.0
33.0	0.143	-1.0
33.0	0.144	-1.0
33.0	0.145	-1.0
33.0	0.146	-1.0
33.0	0.147	-1.0
33.0	0.148	-1.0
33.0	0.149	-1.0
33.0	0.15	-1.0
33.0	0.151	-1.0
33.0	0.152	-1.0
33.0	0.153	-1.0
33.0	0.154	-1.0
33.0	0.155	-1.0
33.0	0.156	-1.0
33.0	0.157	-1.0
33.0	0.158	-1.0
33.0	0.159	-1.0
33.0	0.16	-1.0
33.0	0.161	-1.0
33.0	0.162	-1.0
33.0	0.163	-1.0
33.0	0.164	-1.0
33.0	0.165	-1.0
33.0	0.166	-1.0
33.0	0.167	-1.0
33.0	0.168	-1.0
33.0	0.169	-1.0
33.0	0.17	-1.0
33.0	0.171	-1.0
33.0	0.172	-1.0
33.0	0.173	-1.0
33.0	0.174	-1.0
33.0	0.175	-1.0
33.0	0.176	-1.0
33.0	0.177	-1.0
33.0	0.178	-1.0
33.0	0.179	-1.0
33.0	0.18	-1.0
33.0	0.181	-1.0
33.0	0.182	-1.0
33.0	0.183	-1.0
33.0	0.184	-1.0
33.0	0.185	-1.0
33.0	0.186	-1.0
33.0	0.187	-1.0
33.0	0.188	-1.0
33.0	0.189	-1.0
33.0	0.19	-1.0
33.0	0.191	-1.0
33.0	0.192	-1.0
33.0	0.193	-1.0
33.0	0.194	-1.0
33.0	0.195	-1.0
33.0	0.196	-1.0
33.0	0.197	-1.0
33.0	0.198	-1.0
33.0	0.199	-1.0
33.0	0.2	-1.0
35.0	0.021	-1.0
35.0	0.022	-1.0
35.0	0.023	-1.0
35.0	0.024	-1.0
35.0	0.025	-1.0
35.0	0.026	-1.0
35.0	0.027	-1.0
35.0	0.028	-1.0
35.0	0.029	-1.0
35.0	0.03	-1.0
35.0	0.031	-1.0
35.0	0.032	-1.0
35.0	0.033	-1.0
35.0	0.034	-1.0
35.0	0.035	-1.0
35.0	0.036	-1.0
35.0	0.037	-1.0
35.0	0.038	-1.0
35.0	0.039	-1.0
35.0	0.04	-1.0
35.0	0.041	-1.0
35.0	0.042	-1.0
35.0	0.043	-1.0
35.0	0.044	-1.0
35.0	0.045	-1.0
35.0	0.046	-1.0
35.0	0.047	-1.0
35.0	0.048	-1.0
35.0	0.049	-1.0
35.0	0.05	-1.0
35.0	0.051	-1.0
35.0	0.052	-1.0
35.0	0.053	-1.0
35.0	0.054	-1.0
35.0	0.055	-1.0
35.0	0.056	-1.0
35.0	0.057	-1.0
35.0	0.058	-1.0
35.0	0.059	-1.0
35.0	0.06	-1.0
35.0	0.061	-1.0
35.0	0.062	-1.0
35.0	0.063	-1.0
35.0	0.064	-1.0
35.0	0.065	-1.0
35.0	0.066	-1.0
35.0	0.067	-1.0
35.0	0.068	-1.0
35.0	0.069	-1.0
35.0	0.07	-1.0
35.0	0.071	-1.0
35.0	0.072	-1.0
35.0	0.073	-1.0
35.0	0.074	-1.0
35.0	0.075	-1.0
35.0	0.076	-1.0
35.0	0.077	-1.0
35.0	0.078	-1.0
35.0	0.079	-1.0
35.0	0.08	-1.0
35.0	0.081	-1.0
35.0	0.082	-1.0
35.0	0.083	-1.0
35.0	0.084	-1.0
35.0	0.085	-1.0
35.0	0.086	-1.0
35.0	0.087	-1.0
35.0	0.088	-1.0
35.0	0.089	-1.0
35.0	0.09	-1.0
35.0	0.091	-1.0
35.0	0.092	-1.0
35.0	0.093	-1.0
35.0	0.094	-1.0
35.0	0.095	-1.0
35.0	0.096	-1.0
35.0	0.097	-1.0
35.0	0.098	-1.0
35.0	0.099	-1.0
35.0	0.1	-1.0
35.0	0.101	-1.0
35.0	0.102	-1.0
35.0	0.103	-1.0
35.0	0.104	-1.0
35.0	0.105	-1.0
35.0	0.106	-1.0
35.0	0.107	-1.0
35.0	0.108	-1.0
35.0	0.109	-1.0
35.0	0.11	-1.0
35.0	0.111	-1.0
35.0	0.112	-1.0
35.0	0.113	0.0005922903551997925
35.0	0.114	0.008540424626880802
35.0	0.115	0.01672662282584938
35.0	0.116	0.025057268994625282
35.0	0.117	0.03341489275602577
35.0	0.118	0.04167716437466239
35.0	0.119	0.04973767572618225
35.0	0.12	0.049698898642352426
35.0	0.121	0.044078880507432014
35.0	0.122	0.03872299425781156
35.0	0.123	0.033619947128150196
35.0	0.124	0.02875555390375046
35.0	0.125	0.02411426368234765
35.0	0.126	0.019680217003358976
35.0	0.127	0.015437926915308311
35.0	0.128	0.011372683175229784
35.0	0.129	0.007470764652682368
35.0	0.13	0.003719525373279363
35.0	0.131	0.00010740128314080634
35.0	0.132	-1.0
35.0	0.133	-1.0
35.0	0.134	-1.0
35.0	0.135	-1.0
35.0	0.136	-1.0
35.0	0.137	-1.0
35.0	0.138	-1.0
35.0	0.139	-1.0
35.0	0.14	-1.0
35.0	0.141	-1.0
35.0	0.142	-1.0
35.0	0.143	-1.0
35.0	0.144	-1.0
35.0	0.145	-1.0
35.0	0.146	-1.0
35.0	0.147	-1.0
35.0	0.148	-1.0
35.0	0.149	-1.0
35.0	0.15	-1.0
35.0	0.151	-1.0
35.0	0.152	-1.0
35.0	0.153	-1.0
35.0	0.154	-1.0
35.0	0.155	-1.0
35.0	0.156	-1.0
35.0	0.157	-1.0
35.0	0.158	-1.0
35.0	0.159	-1.0
35.0	0.16	-1.0
35.0	0.161	-1.0
35.0	0.162	-1.0
35.0	0.163	-1.0
35.0	0.164	-1.0
35.0	0.165	-1.0
35.0	0.166	-1.0
35.0	0.167	-1.0
35.0	0.168	-1.0
35.0	0.169	-1.0
35.0	0.17	-1.0
35.0	0.171	-1.0
35.0	0.172	-1.0
35.0	0.173	-1.0
35.0	0.174	-1.0
35.0	0.175	-1.0
35.0	0.176	-1.0
35.0	0.177	-1.0
35.0	0.178	-1.0
35.0	0.179	-1.0
35.0	0.18	-1.0
35.0	0.181	-1.0
35.0	0.182	-1.0
35.0	0.183	-1.0
35.0	0.184	-1.0
35.0	0.185	-1.0
35.0	0.186	-1.0
35.0	0.187	-1.0
35.0	0.188	-1.0
35.0	0.189	-1.0
35.0	0.19	-1.0
35.0	0.191	-1.0
35.0	0.192	-1.0
35.0	0.193	-1.0
35.0	0.194	-1.0
35.0	0.195	-1.0
35.0	0.196	-1.0
35.0	0.197	-1.0
35.0	0.198	-1.0
35.0	0.199	-1.0
35.0	0.2	-1.0
37.0	0.021	-1.0
37.0	0.022	-1.0
37.0	0.023	-1.0
37.0	0.024	-1.0
37.0	0.025	-1.0
37.0	0.026	-1.0
37.0	0.027	-1.0
37.0	0.028	-1.0
37.0	0.029	-1.0
37.0	0.03	-1.0
37.0	0.031	-1.0
37.0	0.032	-1.0
37.0	0.033	-1.0
37.0	0.034	-1.0
37.0	0.035	-1.0
37.0	0.036	-1.0
37.0	0.037	-1.0
37.0	0.038	-1.0
37.0	0.039	-1.0
37.0	0.04	-1.0
37.0	0.041	-1.0
37.0	0.042	-1.0
37.0	0.043	-1.0
37.0	0.044	-1.0
37.0	0.045	-1.0
37.0	0.046	-1.0
37.0	0.047	-1.0
37.0	0.048	-1.0
37.0	0.049	-1.0
37.0	0.05	-1.0
37.0	0.051	-1.0
37.0	0.052	-1.0
37.0	0.053	-1.0
37.0	0.054	-1.0
37.0	0.055	-1.0
37.0	0.056	-1.0
37.0	0.057	-1.0
37.0	0.058	-1.0
37.0	0.059	-1.0
37.0	0.06	-1.0
37.0	0.061	-1.0
37.0	0.062	-1.0
37.0	0.063	-1.0
37.0	0.064	-1.0
37.0	0.065	-1.0
37.0	0.066	-1.0
37.0	0.067	-1.0
37.0	0.068	-1.0
37.0	0.069	-1.0
37.0	0.07	-1.0
37.0	0.071	-1.0
37.0	0.072	-1.0
37.0	0.073	-1.0
37.0	0.074	-1.0
37.0	0.075	-1.0
37.0	0.076	-1.0
37.0	0.077	-1.0
37.0	0.078	-1.0
37.0	0.079	-1.0
37.0	0.08	-1.0
37.0	0.081	-1.0
37.0	0.082	-1.0
37.0	0.083	-1.0
37.0	0.084	-1.0
37.0	0.085	-1.0
37.0	0.086	-1.0
37.0	0.087	-1.0
37.0	0.088	-1.0
37.0	0.089	-1.0
37.0	0.09	-1.0
37.0	0.091	-1.0
37.0	0.092	-1.0
37.0	0.093	-1.0
37.0	0.094	-1.0
37.0	0.095	-1.0
37.0	0.096	-1.0
37.0	0.097	-1.0
37.0	0.098	-1.0
37.0	0.099	-1.0
37.0	0.1	-1.0
37.0	0.101	-1.0
37.0	0.102	-1.0
37.0	0.103	-1.0
37.0	0.104	-1.0
37.0	0.105	-1.0
37.0	0.106	-1.0
37.0	0.107	-1.0
37.0	0.108	-1.0
37.0	0.109	-1.0
37.0	0.11	-1.0
37.0	0.111	-1.0
37.0	0.112	-1.0
37.0	0.113	0.005952890660749994
37.0	0.114	0.014195388329877372
37.0	0.115	0.02265050875678625
37.0	0.116	0.03110766650777444
37.0	0.117	0.03939800816477206
37.0	0.118	0.047414904972349306
37.0	0.119	0.05510332224129194
37.0	0.12	0.06087955860881382
37.0	0.121	0.05562975774660112
37.0	0.122	0.050571612774870614
37.0	0.123	0.04570244057665139
37.0	0.124	0.04101700538650006
37.0	0.125	0.03650831697021421
37.0	0.126	0.03216828808590792
37.0	0.127	0.027988247093198332
37.0	0.128	0.02395931925458833
37.0	0.129	0.020072697991688447
37.0	0.13	0.016319828821507454
37.0	0.131	0.012692526815621542
37.0	0.132	0.009183045127059902
37.0	0.133	0.005784108573578411
37.0	0.134	0.0024889230092717584
37.0	0.135	-1.0
37.0	0.136	-1.0
37.0	0.137	-1.0
37.0	0.138	-1.0
37.0	0.139	-1.0
37.0	0.14	-1.0
37.0	0.141	-1.0
37.0	0.142	-1.0
37.0	0.143	-1.0
37.0	0.144	-1.0
37.0	0.145	-1.0
37.0	0.146	-1.0
37.0	0.147	-1.0
37.0	0.148	-1.0
37.0	0.149	-1.0
37.0	0.15	-1.0
37.0	0.151	-1.0
37.0	0.152	-1.0
37.0	0.153	-1.0
37.0	0.154	-1.0
37.0	0.155	-1.0
37.0	0.156	-1.0
37.0	0.157	-1.0
37.0	0.158	-1.0
37.0	0.159	-1.0
37.0	0.16	-1.0
37.0	0.161	-1.0
37.0	0.162	-1.0
37.0	0.163	-1.0
37.0	0.164	-1.0
37.0	0.165	-1.0
37.0	0.166	-1.0
37.0	0.167	-1.0
37.0	0.168	-1.0
37.0	0.169	-1.0
37.0	0.17	-1.0
37.0	0.171	-1.0
37.0	0.172	-1.0
37.0	0.173	-1.0
37.0	0.174	-1.0
37.0	0.175	-1.0
37.0	0.176	-1.0
37.0	0.177	-1.0
37.0	0.178	-1.0
37.0	0.179	-1.0
37.0	0.18	-1.0
37.0	0.181	-1.0
37.0	0.182	-1.0
37.0	0.183	-1.0
37.0	0.184	-1.0
37.0	0.185	-1.0
37.0	0.186	-1.0
37.0	0.187	-1.0
37.0	0.188	-1.0
37.0	0.189	-1.0
37.0	0.19	-1.0
37.0	0.191	-1.0
37.0	0.192	-1.0
37.0	0.193	-1.0
37.0	0.194	-1.0
37.0	0.195	-1.0
37.0	0.196	-1.0
37.0	0.197	-1.0
37.0	0.198	-1.0
37.0	0.199	-1.0
37.0	0.2	-1.0
39.0	0.021	-1.0
39.0	0.022	-1.0
39.0	0.023	-1.0
39.0	0.024	-1.0
39.0	0.025	-1.0
39.0	0.026	-1.0
39.0	0.027	-1.0
39.0	0.028	-1.0
39.0	0.029	-1.0
39.0	0.03	-1.0
39.0	0.031	-1.0
39.0	0.032	-1.0
39.0	0.033	-1.0
39.0	0.034	-1.0
39.0	0.035	-1.0
39.0	0.036	-1.0
39.0	0.037	-1.0
39.0	0.038	-1.0
39.0	0.039	-1.0
39.0	0.04	-1.0
39.0	0.041	-1.0
39.0	0.042	-1.0
39.0	0.043	-1.0
39.0	0.044	-1.0
39.0	0.045	-1.0
39.0	0.046	-1.0
39.0	0.047	-1.0
39.0	0.048	-1.0
39.0	0.049	-1.0
39.0	0.05	-1.0
39.0	0.051	-1.0
39.0	0.052	-1.0
39.0	0.053	-1.0
39.0	0.054	-1.0
39.0	0.055	-1.0
39.0	0.056	-1.0
39.0	0.057	-1.0
39.0	0.058	-1.0
39.0	0.059	-1.0
39.0	0.06	-1.0
39.0	0.061	-1.0
39.0	0.062	-1.0
39.0	0.063	-1.0
39.0	0.064	-1.0
39.0	0.065	-1.0
39.0	0.066	-1.0
39.0	0.067	-1.0
39.0	0.068	-1.0
39.0	0.069	-1.0
39.0	0.07	-1.0
39.0	0.071	-1.0
39.0	0.072	-1.0
39.0	0.073	-1.0
39.0	0.074	-1.0
39.0	0.075	-1.0
39.0	0.076	-1.0
39.0	0.077	-1.0
39.0	0.078	-1.0
39.0	0.079	-1.0
39.0	0.08	-1.0
39.0	0.081	-1.0
39.0	0.082	-1.0
39.0	0.083	-1.0
39.0	0.084	-1.0
39.0	0.085	-1.0
39.0	0.086	-1.0
39.0	0.087	-1.0
39.0	0.088	-1.0
39.0	0.089	-1.0
39.0	0.09	-1.0
39.0	0.091	-1.0
39.0	0.092	-1.0
39.0	0.093	-1.0
39.0	0.094	-1.0
39.0	0.095	-1.0
39.0	0.096	-1.0
39.0	0.097	-1.0
39.0	0.098	-1.0
39.0	0.099	-1.0
39.0	0.1	-1.0
39.0	0.101	-1.0
39.0	0.102	-1.0
39.0	0.103	-1.0
39.0	0.104	-1.0
39.0	0.105	-1.0
39.0	0.106	-1.0
39.0	0.107	-1.0
39.0	0.108	-1.0
39.0	0.109	-1.0
39.0	0.11	-1.0
39.0	0.111	-1.0
39.0	0.112	0.0047473909977278315
39.0	0.113	0.013898385685694587
39.0	0.114	0.02286785186574994
39.0	0.115	0.03145153236061693
39.0	0.116	0.03960494707152476
39.0	0.117	0.047341549842811956
39.0	0.118	0.05468929504741215
39.0	0.119	0.06167672705996963
39.0	0.12	0.06832960494758471
39.0	0.121	0.06518309646697724
39.0	0.122	0.060396333567902805
39.0	0.123	0.05575642118117678
39.0	0.124	0.05126192912682067
39.0	0.125	0.04690995991242046
39.0	0.126	0.04269652220089358
39.0	0.127	0.038616854610848135
39.0	0.128	0.03466569492571276
39.0	0.129	0.030837496079538652
39.0	0.13	0.027126593996266775
39.0	0.131	0.023527334043038778
39.0	0.132	0.020034163255616133
39.0	0.133	0.016641695090838647
39.0	0.134	0.013344752639654336
39.0	0.135	0.010138395361036232
39.0	0.136	0.0070179334395783
39.0	0.137	0.00397893303894228
39.0	0.138	0.0010172150244734059
39.0	0.139	-1.0
39.0	0.14	-1.0
39.0	0.141	-1.0
39.0	0.142	-1.0
39.0	0.143	-1.0
39.0	0.144	-1.0
39.0	0.145	-1.0
39.0	0.146	-1.0
39.0	0.147	-1.0
39.0	0.148	-1.0
39.0	0.149	-1.0
39.0	0.15	-1.0
39.0	0.151	-1.0
39.0	0.152	-1.0
39.0	0.153	-1.0
39.0	0.154	-1.0
39.0	0.155	-1.0
39.0	0.156	-1.0
39.0	0.157	-1.0
39.0	0.158	-1.0
39.0	0.159	-1.0
39.0	0.16	-1.0
39.0	0.161	-1.0
39.0	0.162	-1.0
39.0	0.163	-1.0
39.0	0.164	-1.0
39.0	0.165	-1.0
39.0	0.166	-1.0
39.0	0.167	-1.0
39.0	0.168	-1.0
39.0	0.169	-1.0
39.0	0.17	-1.0
39.0	0.171	-1.0
39.0	0.172	-1.0
39.0	0.173	-1.0
39.0	0.174	-1.0
39.0	0.175	-1.0
39.0	0.176	-1.0
39.0	0.177	-1.0
39.0	0.178	-1.0
39.0	0.179	-1.0
39.0	0.18	-1.0
39.0	0.181	-1.0
39.0	0.182	-1.0
39.0	0.183	-1.0
39.0	0.184	-1.0
39.0	0.185	-1.0
39.0	0.186	-1.0
39.0	0.187	-1.0
39.0	0.188	-1.0
39.0	0.189	-1.0
39.0	0.19	-1.0
39.0	0.191	-1.0
39.0	0.192	-1.0
39.0	0.193	-1.0
39.0	0.194	-1.0
39.0	0.195	-1.0
39.0	0.196	-1.0
39.0	0.197	-1.0
39.0	0.198	-1.0
39.0	0.199	-1.0
39.0	0.2	-1.0
41.0	0.021	-1.0