Variables="alpha" "beta" "omega"
Zone T="1" I=200 J=100
0.005	0.006	-1.0
0.005	0.012	-1.0
0.005	0.018	-1.0
0.005	0.024	-1.0
0.005	0.03	-1.0
0.005	0.036	-1.0
0.005	0.042	-1.0
0.005	0.048	-1.0
0.005	0.054	-1.0
0.005	0.06	-1.0
0.005	0.066	-1.0
0.005	0.072	-1.0
0.005	0.078	-1.0
0.005	0.084	-1.0
0.005	0.09	-1.0
0.005	0.096	-1.0
0.005	0.102	-1.0
0.005	0.108	-1.0
0.005	0.114	-1.0
0.005	0.12	-1.0
0.005	0.126	-1.0
0.005	0.132	-1.0
0.005	0.138	-1.0
0.005	0.144	-1.0
0.005	0.15	-1.0
0.005	0.156	-1.0
0.005	0.162	-1.0
0.005	0.168	-1.0
0.005	0.174	-1.0
0.005	0.18	-1.0
0.005	0.186	-1.0
0.005	0.192	-1.0
0.005	0.198	-1.0
0.005	0.204	-1.0
0.005	0.21	-1.0
0.005	0.216	-1.0
0.005	0.222	-1.0
0.005	0.228	-1.0
0.005	0.234	-1.0
0.005	0.24	-1.0
0.005	0.246	-1.0
0.005	0.252	-1.0
0.005	0.258	-1.0
0.005	0.264	-1.0
0.005	0.27	-1.0
0.005	0.276	-1.0
0.005	0.282	-1.0
0.005	0.288	-1.0
0.005	0.294	-1.0
0.005	0.3	-1.0
0.005	0.306	-1.0
0.005	0.312	-1.0
0.005	0.318	-1.0
0.005	0.324	-1.0
0.005	0.33	-1.0
0.005	0.336	-1.0
0.005	0.342	-1.0
0.005	0.348	-1.0
0.005	0.354	-1.0
0.005	0.36	-1.0
0.005	0.366	-1.0
0.005	0.372	-1.0
0.005	0.378	-1.0
0.005	0.384	-1.0
0.005	0.39	-1.0
0.005	0.396	-1.0
0.005	0.402	-1.0
0.005	0.408	-1.0
0.005	0.414	-1.0
0.005	0.42	-1.0
0.005	0.426	-1.0
0.005	0.432	-1.0
0.005	0.438	-1.0
0.005	0.444	-1.0
0.005	0.45	-1.0
0.005	0.456	-1.0
0.005	0.462	-1.0
0.005	0.468	-1.0
0.005	0.474	-1.0
0.005	0.48	-1.0
0.005	0.486	-1.0
0.005	0.492	-1.0
0.005	0.498	-1.0
0.005	0.504	-1.0
0.005	0.51	-1.0
0.005	0.516	-1.0
0.005	0.522	-1.0
0.005	0.528	-1.0
0.005	0.534	-1.0
0.005	0.54	-1.0
0.005	0.546	-1.0
0.005	0.552	-1.0
0.005	0.558	-1.0
0.005	0.564	-1.0
0.005	0.57	-1.0
0.005	0.576	-1.0
0.005	0.582	-1.0
0.005	0.588	-1.0
0.005	0.594	-1.0
0.005	0.6	-1.0
0.01	0.006	-1.0
0.01	0.012	-1.0
0.01	0.018	-1.0
0.01	0.024	-1.0
0.01	0.03	-1.0
0.01	0.036	-1.0
0.01	0.042	-1.0
0.01	0.048	-1.0
0.01	0.054	-1.0
0.01	0.06	-1.0
0.01	0.066	-1.0
0.01	0.072	-1.0
0.01	0.078	-1.0
0.01	0.084	-1.0
0.01	0.09	-1.0
0.01	0.096	-1.0
0.01	0.102	-1.0
0.01	0.108	-1.0
0.01	0.114	-1.0
0.01	0.12	-1.0
0.01	0.126	-1.0
0.01	0.132	-1.0
0.01	0.138	-1.0
0.01	0.144	-1.0
0.01	0.15	-1.0
0.01	0.156	-1.0
0.01	0.162	-1.0
0.01	0.168	-1.0
0.01	0.174	-1.0
0.01	0.18	-1.0
0.01	0.186	-1.0
0.01	0.192	-1.0
0.01	0.198	-1.0
0.01	0.204	-1.0
0.01	0.21	-1.0
0.01	0.216	-1.0
0.01	0.222	-1.0
0.01	0.228	-1.0
0.01	0.234	-1.0
0.01	0.24	-1.0
0.01	0.246	-1.0
0.01	0.252	-1.0
0.01	0.258	-1.0
0.01	0.264	-1.0
0.01	0.27	-1.0
0.01	0.276	-1.0
0.01	0.282	-1.0
0.01	0.288	-1.0
0.01	0.294	-1.0
0.01	0.3	-1.0
0.01	0.306	-1.0
0.01	0.312	-1.0
0.01	0.318	-1.0
0.01	0.324	-1.0
0.01	0.33	-1.0
0.01	0.336	-1.0
0.01	0.342	-1.0
0.01	0.348	-1.0
0.01	0.354	-1.0
0.01	0.36	-1.0
0.01	0.366	-1.0
0.01	0.372	-1.0
0.01	0.378	-1.0
0.01	0.384	-1.0
0.01	0.39	-1.0
0.01	0.396	-1.0
0.01	0.402	-1.0
0.01	0.408	-1.0
0.01	0.414	-1.0
0.01	0.42	-1.0
0.01	0.426	-1.0
0.01	0.432	-1.0
0.01	0.438	-1.0
0.01	0.444	-1.0
0.01	0.45	-1.0
0.01	0.456	-1.0
0.01	0.462	-1.0
0.01	0.468	-1.0
0.01	0.474	-1.0
0.01	0.48	-1.0
0.01	0.486	-1.0
0.01	0.492	-1.0
0.01	0.498	-1.0
0.01	0.504	-1.0
0.01	0.51	-1.0
0.01	0.516	-1.0
0.01	0.522	-1.0
0.01	0.528	-1.0
0.01	0.534	-1.0
0.01	0.54	-1.0
0.01	0.546	-1.0
0.01	0.552	-1.0
0.01	0.558	-1.0
0.01	0.564	-1.0
0.01	0.57	-1.0
0.01	0.576	-1.0
0.01	0.582	-1.0
0.01	0.588	-1.0
0.01	0.594	-1.0
0.01	0.6	-1.0
0.015	0.006	-1.0
0.015	0.012	-1.0
0.015	0.018	-1.0
0.015	0.024	-1.0
0.015	0.03	-1.0
0.015	0.036	-1.0
0.015	0.042	-1.0
0.015	0.048	-1.0
0.015	0.054	-1.0
0.015	0.06	-1.0
0.015	0.066	-1.0
0.015	0.072	-1.0
0.015	0.078	-1.0
0.015	0.084	-1.0
0.015	0.09	-1.0
0.015	0.096	-1.0
0.015	0.102	-1.0
0.015	0.108	-1.0
0.015	0.114	-1.0
0.015	0.12	-1.0
0.015	0.126	-1.0
0.015	0.132	-1.0
0.015	0.138	-1.0
0.015	0.144	-1.0
0.015	0.15	-1.0
0.015	0.156	-1.0
0.015	0.162	-1.0
0.015	0.168	-1.0
0.015	0.174	-1.0
0.015	0.18	-1.0
0.015	0.186	-1.0
0.015	0.192	-1.0
0.015	0.198	-1.0
0.015	0.204	-1.0
0.015	0.21	-1.0
0.015	0.216	-1.0
0.015	0.222	-1.0
0.015	0.228	-1.0
0.015	0.234	-1.0
0.015	0.24	-1.0
0.015	0.246	-1.0
0.015	0.252	-1.0
0.015	0.258	-1.0
0.015	0.264	-1.0
0.015	0.27	-1.0
0.015	0.276	-1.0
0.015	0.282	-1.0
0.015	0.288	-1.0
0.015	0.294	-1.0
0.015	0.3	-1.0
0.015	0.306	-1.0
0.015	0.312	-1.0
0.015	0.318	-1.0
0.015	0.324	-1.0
0.015	0.33	-1.0
0.015	0.336	-1.0
0.015	0.342	-1.0
0.015	0.348	-1.0
0.015	0.354	-1.0
0.015	0.36	-1.0
0.015	0.366	-1.0
0.015	0.372	-1.0
0.015	0.378	-1.0
0.015	0.384	-1.0
0.015	0.39	-1.0
0.015	0.396	-1.0
0.015	0.402	-1.0
0.015	0.408	-1.0
0.015	0.414	-1.0
0.015	0.42	-1.0
0.015	0.426	-1.0
0.015	0.432	-1.0
0.015	0.438	-1.0
0.015	0.444	-1.0
0.015	0.45	-1.0
0.015	0.456	-1.0
0.015	0.462	-1.0
0.015	0.468	-1.0
0.015	0.474	-1.0
0.015	0.48	-1.0
0.015	0.486	-1.0
0.015	0.492	-1.0
0.015	0.498	-1.0
0.015	0.504	-1.0
0.015	0.51	-1.0
0.015	0.516	-1.0
0.015	0.522	-1.0
0.015	0.528	-1.0
0.015	0.534	-1.0
0.015	0.54	-1.0
0.015	0.546	-1.0
0.015	0.552	-1.0
0.015	0.558	-1.0
0.015	0.564	-1.0
0.015	0.57	-1.0
0.015	0.576	-1.0
0.015	0.582	-1.0
0.015	0.588	-1.0
0.015	0.594	-1.0
0.015	0.6	-1.0
0.02	0.006	-1.0
0.02	0.012	-1.0
0.02	0.018	-1.0
0.02	0.024	-1.0
0.02	0.03	-1.0
0.02	0.036	-1.0
0.02	0.042	-1.0
0.02	0.048	-1.0
0.02	0.054	-1.0
0.02	0.06	-1.0
0.02	0.066	-1.0
0.02	0.072	-1.0
0.02	0.078	-1.0
0.02	0.084	-1.0
0.02	0.09	-1.0
0.02	0.096	-1.0
0.02	0.102	-1.0
0.02	0.108	-1.0
0.02	0.114	-1.0
0.02	0.12	-1.0
0.02	0.126	-1.0
0.02	0.132	-1.0
0.02	0.138	-1.0
0.02	0.144	-1.0
0.02	0.15	-1.0
0.02	0.156	-1.0
0.02	0.162	-1.0
0.02	0.168	-1.0
0.02	0.174	-1.0
0.02	0.18	-1.0
0.02	0.186	-1.0
0.02	0.192	-1.0
0.02	0.198	-1.0
0.02	0.204	-1.0
0.02	0.21	-1.0
0.02	0.216	-1.0
0.02	0.222	-1.0
0.02	0.228	-1.0
0.02	0.234	-1.0
0.02	0.24	-1.0
0.02	0.246	-1.0
0.02	0.252	-1.0
0.02	0.258	-1.0
0.02	0.264	-1.0
0.02	0.27	-1.0
0.02	0.276	-1.0
0.02	0.282	-1.0
0.02	0.288	-1.0
0.02	0.294	-1.0
0.02	0.3	-1.0
0.02	0.306	-1.0
0.02	0.312	-1.0
0.02	0.318	-1.0
0.02	0.324	-1.0
0.02	0.33	-1.0
0.02	0.336	-1.0
0.02	0.342	-1.0
0.02	0.348	-1.0
0.02	0.354	-1.0
0.02	0.36	-1.0
0.02	0.366	-1.0
0.02	0.372	-1.0
0.02	0.378	-1.0
0.02	0.384	-1.0
0.02	0.39	-1.0
0.02	0.396	-1.0
0.02	0.402	-1.0
0.02	0.408	-1.0
0.02	0.414	-1.0
0.02	0.42	-1.0
0.02	0.426	-1.0
0.02	0.432	-1.0
0.02	0.438	-1.0
0.02	0.444	-1.0
0.02	0.45	-1.0
0.02	0.456	-1.0
0.02	0.462	-1.0
0.02	0.468	-1.0
0.02	0.474	-1.0
0.02	0.48	-1.0
0.02	0.486	-1.0
0.02	0.492	-1.0
0.02	0.498	-1.0
0.02	0.504	-1.0
0.02	0.51	-1.0
0.02	0.516	-1.0
0.02	0.522	-1.0
0.02	0.528	-1.0
0.02	0.534	-1.0
0.02	0.54	-1.0
0.02	0.546	-1.0
0.02	0.552	-1.0
0.02	0.558	-1.0
0.02	0.564	-1.0
0.02	0.57	-1.0
0.02	0.576	-1.0
0.02	0.582	-1.0
0.02	0.588	-1.0
0.02	0.594	-1.0
0.02	0.6	-1.0
0.025	0.006	-1.0
0.025	0.012	-1.0
0.025	0.018	-1.0
0.025	0.024	-1.0
0.025	0.03	-1.0
0.025	0.036	-1.0
0.025	0.042	-1.0
0.025	0.048	-1.0
0.025	0.054	-1.0
0.025	0.06	-1.0
0.025	0.066	-1.0
0.025	0.072	-1.0
0.025	0.078	-1.0
0.025	0.084	-1.0
0.025	0.09	-1.0
0.025	0.096	-1.0
0.025	0.102	-1.0
0.025	0.108	-1.0
0.025	0.114	-1.0
0.025	0.12	-1.0
0.025	0.126	-1.0
0.025	0.132	-1.0
0.025	0.138	-1.0
0.025	0.144	-1.0
0.025	0.15	-1.0
0.025	0.156	-1.0
0.025	0.162	-1.0
0.025	0.168	-1.0
0.025	0.174	-1.0
0.025	0.18	-1.0
0.025	0.186	-1.0
0.025	0.192	-1.0
0.025	0.198	-1.0
0.025	0.204	-1.0
0.025	0.21	-1.0
0.025	0.216	-1.0
0.025	0.222	-1.0
0.025	0.228	-1.0
0.025	0.234	-1.0
0.025	0.24	-1.0
0.025	0.246	-1.0
0.025	0.252	-1.0
0.025	0.258	-1.0
0.025	0.264	-1.0
0.025	0.27	-1.0
0.025	0.276	-1.0
0.025	0.282	-1.0
0.025	0.288	-1.0
0.025	0.294	-1.0
0.025	0.3	-1.0
0.025	0.306	-1.0
0.025	0.312	-1.0
0.025	0.318	-1.0
0.025	0.324	-1.0
0.025	0.33	-1.0
0.025	0.336	-1.0
0.025	0.342	-1.0
0.025	0.348	-1.0
0.025	0.354	-1.0
0.025	0.36	-1.0
0.025	0.366	-1.0
0.025	0.372	-1.0
0.025	0.378	-1.0
0.025	0.384	-1.0
0.025	0.39	-1.0
0.025	0.396	-1.0
0.025	0.402	-1.0
0.025	0.408	-1.0
0.025	0.414	-1.0
0.025	0.42	-1.0
0.025	0.426	-1.0
0.025	0.432	-1.0
0.025	0.438	-1.0
0.025	0.444	-1.0
0.025	0.45	-1.0
0.025	0.456	-1.0
0.025	0.462	-1.0
0.025	0.468	-1.0
0.025	0.474	-1.0
0.025	0.48	-1.0
0.025	0.486	-1.0
0.025	0.492	-1.0
0.025	0.498	-1.0
0.025	0.504	-1.0
0.025	0.51	-1.0
0.025	0.516	-1.0
0.025	0.522	-1.0
0.025	0.528	-1.0
0.025	0.534	-1.0
0.025	0.54	-1.0
0.025	0.546	-1.0
0.025	0.552	-1.0
0.025	0.558	-1.0
0.025	0.564	-1.0
0.025	0.57	-1.0
0.025	0.576	-1.0
0.025	0.582	-1.0
0.025	0.588	-1.0
0.025	0.594	-1.0
0.025	0.6	-1.0
0.03	0.006	-1.0
0.03	0.012	-1.0
0.03	0.018	-1.0
0.03	0.024	-1.0
0.03	0.03	-1.0
0.03	0.036	-1.0
0.03	0.042	-1.0
0.03	0.048	-1.0
0.03	0.054	-1.0
0.03	0.06	-1.0
0.03	0.066	-1.0
0.03	0.072	-1.0
0.03	0.078	-1.0
0.03	0.084	-1.0
0.03	0.09	-1.0
0.03	0.096	-1.0
0.03	0.102	-1.0
0.03	0.108	-1.0
0.03	0.114	-1.0
0.03	0.12	-1.0
0.03	0.126	-1.0
0.03	0.132	-1.0
0.03	0.138	-1.0
0.03	0.144	-1.0
0.03	0.15	-1.0
0.03	0.156	-1.0
0.03	0.162	-1.0
0.03	0.168	-1.0
0.03	0.174	-1.0
0.03	0.18	-1.0
0.03	0.186	-1.0
0.03	0.192	-1.0
0.03	0.198	-1.0
0.03	0.204	-1.0
0.03	0.21	-1.0
0.03	0.216	-1.0
0.03	0.222	-1.0
0.03	0.228	-1.0
0.03	0.234	-1.0
0.03	0.24	-1.0
0.03	0.246	-1.0
0.03	0.252	-1.0
0.03	0.258	-1.0
0.03	0.264	-1.0
0.03	0.27	-1.0
0.03	0.276	-1.0
0.03	0.282	-1.0
0.03	0.288	-1.0
0.03	0.294	-1.0
0.03	0.3	-1.0
0.03	0.306	-1.0
0.03	0.312	-1.0
0.03	0.318	-1.0
0.03	0.324	-1.0
0.03	0.33	-1.0
0.03	0.336	-1.0
0.03	0.342	-1.0
0.03	0.348	-1.0
0.03	0.354	-1.0
0.03	0.36	-1.0
0.03	0.366	-1.0
0.03	0.372	-1.0
0.03	0.378	-1.0
0.03	0.384	-1.0
0.03	0.39	-1.0
0.03	0.396	-1.0
0.03	0.402	-1.0
0.03	0.408	-1.0
0.03	0.414	-1.0
0.03	0.42	-1.0
0.03	0.426	-1.0
0.03	0.432	-1.0
0.03	0.438	-1.0
0.03	0.444	-1.0
0.03	0.45	-1.0
0.03	0.456	-1.0
0.03	0.462	-1.0
0.03	0.468	-1.0
0.03	0.474	-1.0
0.03	0.48	-1.0
0.03	0.486	-1.0
0.03	0.492	-1.0
0.03	0.498	-1.0
0.03	0.504	-1.0
0.03	0.51	-1.0
0.03	0.516	-1.0
0.03	0.522	-1.0
0.03	0.528	-1.0
0.03	0.534	-1.0
0.03	0.54	-1.0
0.03	0.546	-1.0
0.03	0.552	-1.0
0.03	0.558	-1.0
0.03	0.564	-1.0
0.03	0.57	-1.0
0.03	0.576	-1.0
0.03	0.582	-1.0
0.03	0.588	-1.0
0.03	0.594	-1.0
0.03	0.6	-1.0
0.035	0.006	-1.0
0.035	0.012	-1.0
0.035	0.018	-1.0
0.035	0.024	-1.0
0.035	0.03	-1.0
0.035	0.036	-1.0
0.035	0.042	-1.0
0.035	0.048	-1.0
0.035	0.054	-1.0
0.035	0.06	-1.0
0.035	0.066	-1.0
0.035	0.072	-1.0
0.035	0.078	-1.0
0.035	0.084	-1.0
0.035	0.09	-1.0
0.035	0.096	-1.0
0.035	0.102	-1.0
0.035	0.108	-1.0
0.035	0.114	-1.0
0.035	0.12	-1.0
0.035	0.126	-1.0
0.035	0.132	-1.0
0.035	0.138	-1.0
0.035	0.144	-1.0
0.035	0.15	-1.0
0.035	0.156	-1.0
0.035	0.162	-1.0
0.035	0.168	-1.0
0.035	0.174	-1.0
0.035	0.18	-1.0
0.035	0.186	-1.0
0.035	0.192	-1.0
0.035	0.198	-1.0
0.035	0.204	-1.0
0.035	0.21	-1.0
0.035	0.216	-1.0
0.035	0.222	-1.0
0.035	0.228	-1.0
0.035	0.234	-1.0
0.035	0.24	-1.0
0.035	0.246	-1.0
0.035	0.252	-1.0
0.035	0.258	-1.0
0.035	0.264	-1.0
0.035	0.27	-1.0
0.035	0.276	-1.0
0.035	0.282	-1.0
0.035	0.288	-1.0
0.035	0.294	-1.0
0.035	0.3	-1.0
0.035	0.306	-1.0
0.035	0.312	-1.0
0.035	0.318	-1.0
0.035	0.324	-1.0
0.035	0.33	-1.0
0.035	0.336	-1.0
0.035	0.342	-1.0
0.035	0.348	-1.0
0.035	0.354	-1.0
0.035	0.36	-1.0
0.035	0.366	-1.0
0.035	0.372	-1.0
0.035	0.378	-1.0
0.035	0.384	-1.0
0.035	0.39	-1.0
0.035	0.396	-1.0
0.035	0.402	-1.0
0.035	0.408	-1.0
0.035	0.414	-1.0
0.035	0.42	-1.0
0.035	0.426	-1.0
0.035	0.432	-1.0
0.035	0.438	-1.0
0.035	0.444	-1.0
0.035	0.45	-1.0
0.035	0.456	-1.0
0.035	0.462	-1.0
0.035	0.468	-1.0
0.035	0.474	-1.0
0.035	0.48	-1.0
0.035	0.486	-1.0
0.035	0.492	-1.0
0.035	0.498	-1.0
0.035	0.504	-1.0
0.035	0.51	-1.0
0.035	0.516	-1.0
0.035	0.522	-1.0
0.035	0.528	-1.0
0.035	0.534	-1.0
0.035	0.54	-1.0
0.035	0.546	-1.0
0.035	0.552	-1.0
0.035	0.558	-1.0
0.035	0.564	-1.0
0.035	0.57	-1.0
0.035	0.576	-1.0
0.035	0.582	-1.0
0.035	0.588	-1.0
0.035	0.594	-1.0
0.035	0.6	-1.0
0.04	0.006	0.00044660311973150705
0.04	0.012	0.00015320660442625945
0.04	0.018	-1.0
0.04	0.024	-1.0
0.04	0.03	-1.0
0.04	0.036	-1.0
0.04	0.042	-1.0
0.04	0.048	-1.0
0.04	0.054	-1.0
0.04	0.06	-1.0
0.04	0.066	-1.0
0.04	0.072	-1.0
0.04	0.078	-1.0
0.04	0.084	-1.0
0.04	0.09	-1.0
0.04	0.096	-1.0
0.04	0.102	-1.0
0.04	0.108	-1.0
0.04	0.114	-1.0
0.04	0.12	-1.0
0.04	0.126	-1.0
0.04	0.132	-1.0
0.04	0.138	-1.0
0.04	0.144	-1.0
0.04	0.15	-1.0
0.04	0.156	-1.0
0.04	0.162	-1.0
0.04	0.168	-1.0
0.04	0.174	-1.0
0.04	0.18	-1.0
0.04	0.186	-1.0
0.04	0.192	-1.0
0.04	0.198	-1.0
0.04	0.204	-1.0
0.04	0.21	-1.0
0.04	0.216	-1.0
0.04	0.222	-1.0
0.04	0.228	-1.0
0.04	0.234	-1.0
0.04	0.24	-1.0
0.04	0.246	-1.0
0.04	0.252	-1.0
0.04	0.258	-1.0
0.04	0.264	-1.0
0.04	0.27	-1.0
0.04	0.276	-1.0
0.04	0.282	-1.0
0.04	0.288	-1.0
0.04	0.294	-1.0
0.04	0.3	-1.0
0.04	0.306	-1.0
0.04	0.312	-1.0
0.04	0.318	-1.0
0.04	0.324	-1.0
0.04	0.33	-1.0
0.04	0.336	-1.0
0.04	0.342	-1.0
0.04	0.348	-1.0
0.04	0.354	-1.0
0.04	0.36	-1.0
0.04	0.366	-1.0
0.04	0.372	-1.0
0.04	0.378	-1.0
0.04	0.384	-1.0
0.04	0.39	-1.0
0.04	0.396	-1.0
0.04	0.402	-1.0
0.04	0.408	-1.0
0.04	0.414	-1.0
0.04	0.42	-1.0
0.04	0.426	-1.0
0.04	0.432	-1.0
0.04	0.438	-1.0
0.04	0.444	-1.0
0.04	0.45	-1.0
0.04	0.456	-1.0
0.04	0.462	-1.0
0.04	0.468	-1.0
0.04	0.474	-1.0
0.04	0.48	-1.0
0.04	0.486	-1.0
0.04	0.492	-1.0
0.04	0.498	-1.0
0.04	0.504	-1.0
0.04	0.51	-1.0
0.04	0.516	-1.0
0.04	0.522	-1.0
0.04	0.528	-1.0
0.04	0.534	-1.0
0.04	0.54	-1.0
0.04	0.546	-1.0
0.04	0.552	-1.0
0.04	0.558	-1.0
0.04	0.564	-1.0
0.04	0.57	-1.0
0.04	0.576	-1.0
0.04	0.582	-1.0
0.04	0.588	-1.0
0.04	0.594	-1.0
0.04	0.6	-1.0
0.045	0.006	0.0009199499604992675
0.045	0.012	0.0006492871750583742
0.045	0.018	0.0002351045221425076
0.045	0.024	-1.0
0.045	0.03	-1.0
0.045	0.036	-1.0
0.045	0.042	-1.0
0.045	0.048	-1.0
0.045	0.054	-1.0
0.045	0.06	-1.0
0.045	0.066	-1.0
0.045	0.072	-1.0
0.045	0.078	-1.0
0.045	0.084	-1.0
0.045	0.09	-1.0
0.045	0.096	-1.0
0.045	0.102	-1.0
0.045	0.108	-1.0
0.045	0.114	-1.0
0.045	0.12	-1.0
0.045	0.126	-1.0
0.045	0.132	-1.0
0.045	0.138	-1.0
0.045	0.144	-1.0
0.045	0.15	-1.0
0.045	0.156	-1.0
0.045	0.162	-1.0
0.045	0.168	-1.0
0.045	0.174	-1.0
0.045	0.18	-1.0
0.045	0.186	-1.0
0.045	0.192	-1.0
0.045	0.198	-1.0
0.045	0.204	-1.0
0.045	0.21	-1.0
0.045	0.216	-1.0
0.045	0.222	-1.0
0.045	0.228	-1.0
0.045	0.234	-1.0
0.045	0.24	-1.0
0.045	0.246	-1.0
0.045	0.252	-1.0
0.045	0.258	-1.0
0.045	0.264	-1.0
0.045	0.27	-1.0
0.045	0.276	-1.0
0.045	0.282	-1.0
0.045	0.288	-1.0
0.045	0.294	-1.0
0.045	0.3	-1.0
0.045	0.306	-1.0
0.045	0.312	-1.0
0.045	0.318	-1.0
0.045	0.324	-1.0
0.045	0.33	-1.0
0.045	0.336	-1.0
0.045	0.342	-1.0
0.045	0.348	-1.0
0.045	0.354	-1.0
0.045	0.36	-1.0
0.045	0.366	-1.0
0.045	0.372	-1.0
0.045	0.378	-1.0
0.045	0.384	-1.0
0.045	0.39	-1.0
0.045	0.396	-1.0
0.045	0.402	-1.0
0.045	0.408	-1.0
0.045	0.414	-1.0
0.045	0.42	-1.0
0.045	0.426	-1.0
0.045	0.432	-1.0
0.045	0.438	-1.0
0.045	0.444	-1.0
0.045	0.45	-1.0
0.045	0.456	-1.0
0.045	0.462	-1.0
0.045	0.468	-1.0
0.045	0.474	-1.0
0.045	0.48	-1.0
0.045	0.486	-1.0
0.045	0.492	-1.0
0.045	0.498	-1.0
0.045	0.504	-1.0
0.045	0.51	-1.0
0.045	0.516	-1.0
0.045	0.522	-1.0
0.045	0.528	-1.0
0.045	0.534	-1.0
0.045	0.54	-1.0
0.045	0.546	-1.0
0.045	0.552	-1.0
0.045	0.558	-1.0
0.045	0.564	-1.0
0.045	0.57	-1.0
0.045	0.576	-1.0
0.045	0.582	-1.0
0.045	0.588	-1.0
0.045	0.594	-1.0
0.045	0.6	-1.0
0.05	0.006	0.0013913701473558316
0.05	0.012	0.0011422883307937782
0.05	0.018	0.0007625014013700097
0.05	0.024	0.00026613268827433724
0.05	0.03	-1.0
0.05	0.036	-1.0
0.05	0.042	-1.0
0.05	0.048	-1.0
0.05	0.054	-1.0
0.05	0.06	-1.0
0.05	0.066	-1.0
0.05	0.072	-1.0
0.05	0.078	-1.0
0.05	0.084	-1.0
0.05	0.09	-1.0
0.05	0.096	-1.0
0.05	0.102	-1.0
0.05	0.108	-1.0
0.05	0.114	-1.0
0.05	0.12	-1.0
0.05	0.126	-1.0
0.05	0.132	-1.0
0.05	0.138	-1.0
0.05	0.144	-1.0
0.05	0.15	-1.0
0.05	0.156	-1.0
0.05	0.162	-1.0
0.05	0.168	-1.0
0.05	0.174	-1.0
0.05	0.18	-1.0
0.05	0.186	-1.0
0.05	0.192	-1.0
0.05	0.198	-1.0
0.05	0.204	-1.0
0.05	0.21	-1.0
0.05	0.216	-1.0
0.05	0.222	-1.0
0.05	0.228	-1.0
0.05	0.234	-1.0
0.05	0.24	-1.0
0.05	0.246	-1.0
0.05	0.252	-1.0
0.05	0.258	-1.0
0.05	0.264	-1.0
0.05	0.27	-1.0
0.05	0.276	-1.0
0.05	0.282	-1.0
0.05	0.288	-1.0
0.05	0.294	-1.0
0.05	0.3	-1.0
0.05	0.306	-1.0
0.05	0.312	-1.0
0.05	0.318	-1.0
0.05	0.324	-1.0
0.05	0.33	-1.0
0.05	0.336	-1.0
0.05	0.342	-1.0
0.05	0.348	-1.0
0.05	0.354	-1.0
0.05	0.36	-1.0
0.05	0.366	-1.0
0.05	0.372	-1.0
0.05	0.378	-1.0
0.05	0.384	-1.0
0.05	0.39	-1.0
0.05	0.396	-1.0
0.05	0.402	-1.0
0.05	0.408	-1.0
0.05	0.414	-1.0
0.05	0.42	-1.0
0.05	0.426	-1.0
0.05	0.432	-1.0
0.05	0.438	-1.0
0.05	0.444	-1.0
0.05	0.45	-1.0
0.05	0.456	-1.0
0.05	0.462	-1.0
0.05	0.468	-1.0
0.05	0.474	-1.0
0.05	0.48	-1.0
0.05	0.486	-1.0
0.05	0.492	-1.0
0.05	0.498	-1.0
0.05	0.504	-1.0
0.05	0.51	-1.0
0.05	0.516	-1.0
0.05	0.522	-1.0
0.05	0.528	-1.0
0.05	0.534	-1.0
0.05	0.54	-1.0
0.05	0.546	-1.0
0.05	0.552	-1.0
0.05	0.558	-1.0
0.05	0.564	-1.0
0.05	0.57	-1.0
0.05	0.576	-1.0
0.05	0.582	-1.0
0.05	0.588	-1.0
0.05	0.594	-1.0
0.05	0.6	-1.0
0.055	0.006	0.001861885002419962
0.055	0.012	0.0016328527049940123
0.055	0.018	0.0012844441497278957
0.055	0.024	0.000828484212361032
0.055	0.03	0.00028018468468027347
0.055	0.036	-1.0
0.055	0.042	-1.0
0.055	0.048	-1.0
0.055	0.054	-1.0
0.055	0.06	-1.0
0.055	0.066	-1.0
0.055	0.072	-1.0
0.055	0.078	-1.0
0.055	0.084	-1.0
0.055	0.09	-1.0
0.055	0.096	-1.0
0.055	0.102	-1.0
0.055	0.108	-1.0
0.055	0.114	-1.0
0.055	0.12	-1.0
0.055	0.126	-1.0
0.055	0.132	-1.0
0.055	0.138	-1.0
0.055	0.144	-1.0
0.055	0.15	-1.0
0.055	0.156	-1.0
0.055	0.162	-1.0
0.055	0.168	-1.0
0.055	0.174	-1.0
0.055	0.18	-1.0
0.055	0.186	-1.0
0.055	0.192	-1.0
0.055	0.198	-1.0
0.055	0.204	-1.0
0.055	0.21	-1.0
0.055	0.216	-1.0
0.055	0.222	-1.0
0.055	0.228	-1.0
0.055	0.234	-1.0
0.055	0.24	-1.0
0.055	0.246	-1.0
0.055	0.252	-1.0
0.055	0.258	-1.0
0.055	0.264	-1.0
0.055	0.27	-1.0
0.055	0.276	-1.0
0.055	0.282	-1.0
0.055	0.288	-1.0
0.055	0.294	-1.0
0.055	0.3	-1.0
0.055	0.306	-1.0
0.055	0.312	-1.0
0.055	0.318	-1.0
0.055	0.324	-1.0
0.055	0.33	-1.0
0.055	0.336	-1.0
0.055	0.342	-1.0
0.055	0.348	-1.0
0.055	0.354	-1.0
0.055	0.36	-1.0
0.055	0.366	-1.0
0.055	0.372	-1.0
0.055	0.378	-1.0
0.055	0.384	-1.0
0.055	0.39	-1.0
0.055	0.396	-1.0
0.055	0.402	-1.0
0.055	0.408	-1.0
0.055	0.414	-1.0
0.055	0.42	-1.0
0.055	0.426	-1.0
0.055	0.432	-1.0
0.055	0.438	-1.0
0.055	0.444	-1.0
0.055	0.45	-1.0
0.055	0.456	-1.0
0.055	0.462	-1.0
0.055	0.468	-1.0
0.055	0.474	-1.0
0.055	0.48	-1.0
0.055	0.486	-1.0
0.055	0.492	-1.0
0.055	0.498	-1.0
0.055	0.504	-1.0
0.055	0.51	-1.0
0.055	0.516	-1.0
0.055	0.522	-1.0
0.055	0.528	-1.0
0.055	0.534	-1.0
0.055	0.54	-1.0
0.055	0.546	-1.0
0.055	0.552	-1.0
0.055	0.558	-1.0
0.055	0.564	-1.0
0.055	0.57	-1.0
0.055	0.576	-1.0
0.055	0.582	-1.0
0.055	0.588	-1.0
0.055	0.594	-1.0
0.055	0.6	-1.0
0.06	0.006	0.002332915357170427
0.06	0.012	0.0021220197838517627
0.06	0.018	0.0018019502690084675
0.06	0.024	0.0013825540564369157
0.06	0.03	0.0008766344604100152
0.06	0.036	0.00029881733113592277
0.06	0.042	-1.0
0.06	0.048	-1.0
0.06	0.054	-1.0
0.06	0.06	-1.0
0.06	0.066	-1.0
0.06	0.072	-1.0
0.06	0.078	-1.0
0.06	0.084	-1.0
0.06	0.09	-1.0
0.06	0.096	-1.0
0.06	0.102	-1.0
0.06	0.108	-1.0
0.06	0.114	-1.0
0.06	0.12	-1.0
0.06	0.126	-1.0
0.06	0.132	-1.0
0.06	0.138	-1.0
0.06	0.144	-1.0
0.06	0.15	-1.0
0.06	0.156	-1.0
0.06	0.162	-1.0
0.06	0.168	-1.0
0.06	0.174	-1.0
0.06	0.18	-1.0
0.06	0.186	-1.0
0.06	0.192	-1.0
0.06	0.198	-1.0
0.06	0.204	-1.0
0.06	0.21	-1.0
0.06	0.216	-1.0
0.06	0.222	-1.0
0.06	0.228	-1.0
0.06	0.234	-1.0
0.06	0.24	-1.0
0.06	0.246	-1.0
0.06	0.252	-1.0
0.06	0.258	-1.0
0.06	0.264	-1.0
0.06	0.27	-1.0
0.06	0.276	-1.0
0.06	0.282	-1.0
0.06	0.288	-1.0
0.06	0.294	-1.0
0.06	0.3	-1.0
0.06	0.306	-1.0
0.06	0.312	-1.0
0.06	0.318	-1.0
0.06	0.324	-1.0
0.06	0.33	-1.0
0.06	0.336	-1.0
0.06	0.342	-1.0
0.06	0.348	-1.0
0.06	0.354	-1.0
0.06	0.36	-1.0
0.06	0.366	-1.0
0.06	0.372	-1.0
0.06	0.378	-1.0
0.06	0.384	-1.0
0.06	0.39	-1.0
0.06	0.396	-1.0
0.06	0.402	-1.0
0.06	0.408	-1.0
0.06	0.414	-1.0
0.06	0.42	-1.0
0.06	0.426	-1.0
0.06	0.432	-1.0
0.06	0.438	-1.0
0.06	0.444	-1.0
0.06	0.45	-1.0
0.06	0.456	-1.0
0.06	0.462	-1.0
0.06	0.468	-1.0
0.06	0.474	-1.0
0.06	0.48	-1.0
0.06	0.486	-1.0
0.06	0.492	-1.0
0.06	0.498	-1.0
0.06	0.504	-1.0
0.06	0.51	-1.0
0.06	0.516	-1.0
0.06	0.522	-1.0
0.06	0.528	-1.0
0.06	0.534	-1.0
0.06	0.54	-1.0
0.06	0.546	-1.0
0.06	0.552	-1.0
0.06	0.558	-1.0
0.06	0.564	-1.0
0.06	0.57	-1.0
0.06	0.576	-1.0
0.06	0.582	-1.0
0.06	0.588	-1.0
0.06	0.594	-1.0
0.06	0.6	-1.0
0.065	0.006	0.002805694651712377
0.065	0.012	0.0026108856084667556
0.065	0.018	0.002316223875072572
0.065	0.024	0.0019297752553459088
0.065	0.03	0.0014622906396620679
0.065	0.036	0.0009262882278380862
0.065	0.042	0.0003350415471149457
0.065	0.048	-1.0
0.065	0.054	-1.0
0.065	0.06	-1.0
0.065	0.066	-1.0
0.065	0.072	-1.0
0.065	0.078	-1.0
0.065	0.084	-1.0
0.065	0.09	-1.0
0.065	0.096	-1.0
0.065	0.102	-1.0
0.065	0.108	-1.0
0.065	0.114	-1.0
0.065	0.12	-1.0
0.065	0.126	-1.0
0.065	0.132	-1.0
0.065	0.138	-1.0
0.065	0.144	-1.0
0.065	0.15	-1.0
0.065	0.156	-1.0
0.065	0.162	-1.0
0.065	0.168	-1.0
0.065	0.174	-1.0
0.065	0.18	-1.0
0.065	0.186	-1.0
0.065	0.192	-1.0
0.065	0.198	-1.0
0.065	0.204	-1.0
0.065	0.21	-1.0
0.065	0.216	-1.0
0.065	0.222	-1.0
0.065	0.228	-1.0
0.065	0.234	-1.0
0.065	0.24	-1.0
0.065	0.246	-1.0
0.065	0.252	-1.0
0.065	0.258	-1.0
0.065	0.264	-1.0
0.065	0.27	-1.0
0.065	0.276	-1.0
0.065	0.282	-1.0
0.065	0.288	-1.0
0.065	0.294	-1.0
0.065	0.3	-1.0
0.065	0.306	-1.0
0.065	0.312	-1.0
0.065	0.318	-1.0
0.065	0.324	-1.0
0.065	0.33	-1.0
0.065	0.336	-1.0
0.065	0.342	-1.0
0.065	0.348	-1.0
0.065	0.354	-1.0
0.065	0.36	-1.0
0.065	0.366	-1.0
0.065	0.372	-1.0
0.065	0.378	-1.0
0.065	0.384	-1.0
0.065	0.39	-1.0
0.065	0.396	-1.0
0.065	0.402	-1.0
0.065	0.408	-1.0
0.065	0.414	-1.0
0.065	0.42	-1.0
0.065	0.426	-1.0
0.065	0.432	-1.0
0.065	0.438	-1.0
0.065	0.444	-1.0
0.065	0.45	-1.0
0.065	0.456	-1.0
0.065	0.462	-1.0
0.065	0.468	-1.0
0.065	0.474	-1.0
0.065	0.48	-1.0
0.065	0.486	-1.0
0.065	0.492	-1.0
0.065	0.498	-1.0
0.065	0.504	-1.0
0.065	0.51	-1.0
0.065	0.516	-1.0
0.065	0.522	-1.0
0.065	0.528	-1.0
0.065	0.534	-1.0
0.065	0.54	-1.0
0.065	0.546	-1.0
0.065	0.552	-1.0
0.065	0.558	-1.0
0.065	0.564	-1.0
0.065	0.57	-1.0
0.065	0.576	-1.0
0.065	0.582	-1.0
0.065	0.588	-1.0
0.065	0.594	-1.0
0.065	0.6	-1.0
0.07	0.006	0.0032814331760683256
0.07	0.012	0.003100632029666008
0.07	0.018	0.0028285148000532783
0.07	0.024	0.0024716138937785842
0.07	0.03	0.002038931448105101
0.07	0.036	0.0015410897741591825
0.07	0.042	0.0009896057293801788
0.07	0.048	0.0003961487594763523
0.07	0.054	-1.0
0.07	0.06	-1.0
0.07	0.066	-1.0
0.07	0.072	-1.0
0.07	0.078	-1.0
0.07	0.084	-1.0
0.07	0.09	-1.0
0.07	0.096	-1.0
0.07	0.102	-1.0
0.07	0.108	-1.0
0.07	0.114	-1.0
0.07	0.12	-1.0
0.07	0.126	-1.0
0.07	0.132	-1.0
0.07	0.138	-1.0
0.07	0.144	-1.0
0.07	0.15	-1.0
0.07	0.156	-1.0
0.07	0.162	-1.0
0.07	0.168	-1.0
0.07	0.174	-1.0
0.07	0.18	-1.0
0.07	0.186	-1.0
0.07	0.192	-1.0
0.07	0.198	-1.0
0.07	0.204	-1.0
0.07	0.21	-1.0
0.07	0.216	-1.0
0.07	0.222	-1.0
0.07	0.228	-1.0
0.07	0.234	-1.0
0.07	0.24	-1.0
0.07	0.246	-1.0
0.07	0.252	-1.0
0.07	0.258	-1.0
0.07	0.264	-1.0
0.07	0.27	-1.0
0.07	0.276	-1.0
0.07	0.282	-1.0
0.07	0.288	-1.0
0.07	0.294	-1.0
0.07	0.3	-1.0
0.07	0.306	-1.0
0.07	0.312	-1.0
0.07	0.318	-1.0
0.07	0.324	-1.0
0.07	0.33	-1.0
0.07	0.336	-1.0
0.07	0.342	-1.0
0.07	0.348	-1.0
0.07	0.354	-1.0
0.07	0.36	-1.0
0.07	0.366	-1.0
0.07	0.372	-1.0
0.07	0.378	-1.0
0.07	0.384	-1.0
0.07	0.39	-1.0
0.07	0.396	-1.0
0.07	0.402	-1.0
0.07	0.408	-1.0
0.07	0.414	-1.0
0.07	0.42	-1.0
0.07	0.426	-1.0
0.07	0.432	-1.0
0.07	0.438	-1.0
0.07	0.444	-1.0
0.07	0.45	-1.0
0.07	0.456	-1.0
0.07	0.462	-1.0
0.07	0.468	-1.0
0.07	0.474	-1.0
0.07	0.48	-1.0
0.07	0.486	-1.0
0.07	0.492	-1.0
0.07	0.498	-1.0
0.07	0.504	-1.0
0.07	0.51	-1.0
0.07	0.516	-1.0
0.07	0.522	-1.0
0.07	0.528	-1.0
0.07	0.534	-1.0
0.07	0.54	-1.0
0.07	0.546	-1.0
0.07	0.552	-1.0
0.07	0.558	-1.0
0.07	0.564	-1.0
0.07	0.57	-1.0
0.07	0.576	-1.0
0.07	0.582	-1.0
0.07	0.588	-1.0
0.07	0.594	-1.0
0.07	0.6	-1.0
0.075	0.006	0.0037613048641712728
0.075	0.012	0.0035924187926743155
0.075	0.018	0.00334006216923936
0.075	0.024	0.0030095139413679303
0.075	0.03	0.002608197828771229
0.075	0.036	0.002145129870377103
0.075	0.042	0.0016302370706218136
0.075	0.048	0.0010737659982072549
0.075	0.054	0.00048570591281325344
0.075	0.06	-1.0
0.075	0.066	-1.0
0.075	0.072	-1.0
0.075	0.078	-1.0
0.075	0.084	-1.0
0.075	0.09	-1.0
0.075	0.096	-1.0
0.075	0.102	-1.0
0.075	0.108	-1.0
0.075	0.114	-1.0
0.075	0.12	-1.0
0.075	0.126	-1.0
0.075	0.132	-1.0
0.075	0.138	-1.0
0.075	0.144	-1.0
0.075	0.15	-1.0
0.075	0.156	-1.0
0.075	0.162	-1.0
0.075	0.168	-1.0
0.075	0.174	-1.0
0.075	0.18	-1.0
0.075	0.186	-1.0
0.075	0.192	-1.0
0.075	0.198	-1.0
0.075	0.204	-1.0
0.075	0.21	-1.0
0.075	0.216	-1.0
0.075	0.222	-1.0
0.075	0.228	-1.0
0.075	0.234	-1.0
0.075	0.24	-1.0
0.075	0.246	-1.0
0.075	0.252	-1.0
0.075	0.258	-1.0
0.075	0.264	-1.0
0.075	0.27	-1.0
0.075	0.276	-1.0
0.075	0.282	-1.0
0.075	0.288	-1.0
0.075	0.294	-1.0
0.075	0.3	-1.0
0.075	0.306	-1.0
0.075	0.312	-1.0
0.075	0.318	-1.0
0.075	0.324	-1.0
0.075	0.33	-1.0
0.075	0.336	-1.0
0.075	0.342	-1.0
0.075	0.348	-1.0
0.075	0.354	-1.0
0.075	0.36	-1.0
0.075	0.366	-1.0
0.075	0.372	-1.0
0.075	0.378	-1.0
0.075	0.384	-1.0
0.075	0.39	-1.0
0.075	0.396	-1.0
0.075	0.402	-1.0
0.075	0.408	-1.0
0.075	0.414	-1.0
0.075	0.42	-1.0
0.075	0.426	-1.0
0.075	0.432	-1.0
0.075	0.438	-1.0
0.075	0.444	-1.0
0.075	0.45	-1.0
0.075	0.456	-1.0
0.075	0.462	-1.0
0.075	0.468	-1.0
0.075	0.474	-1.0
0.075	0.48	-1.0
0.075	0.486	-1.0
0.075	0.492	-1.0
0.075	0.498	-1.0
0.075	0.504	-1.0
0.075	0.51	-1.0
0.075	0.516	-1.0
0.075	0.522	-1.0
0.075	0.528	-1.0
0.075	0.534	-1.0
0.075	0.54	-1.0
0.075	0.546	-1.0
0.075	0.552	-1.0
0.075	0.558	-1.0
0.075	0.564	-1.0
0.075	0.57	-1.0
0.075	0.576	-1.0
0.075	0.582	-1.0
0.075	0.588	-1.0
0.075	0.594	-1.0
0.075	0.6	-1.0
0.08	0.006	0.004246333425576704
0.08	0.012	0.004087150273520598
0.08	0.018	0.003852002956151454
0.08	0.024	0.003544810479300396
0.08	0.03	0.003171664310458957
0.08	0.036	0.002740174018826848
0.08	0.042	0.002258876172263341
0.08	0.048	0.0017367261859586385
0.08	0.054	0.0011826387487797216
0.08	0.06	0.0006051293100764872
0.08	0.066	1.2053359204233774e-5
0.08	0.072	-1.0
0.08	0.078	-1.0
0.08	0.084	-1.0
0.08	0.09	-1.0
0.08	0.096	-1.0
0.08	0.102	-1.0
0.08	0.108	-1.0
0.08	0.114	-1.0
0.08	0.12	-1.0
0.08	0.126	-1.0
0.08	0.132	-1.0
0.08	0.138	-1.0
0.08	0.144	-1.0
0.08	0.15	-1.0
0.08	0.156	-1.0
0.08	0.162	-1.0
0.08	0.168	-1.0
0.08	0.174	-1.0
0.08	0.18	-1.0
0.08	0.186	-1.0
0.08	0.192	-1.0
0.08	0.198	-1.0
0.08	0.204	-1.0
0.08	0.21	-1.0
0.08	0.216	-1.0
0.08	0.222	-1.0
0.08	0.228	-1.0
0.08	0.234	-1.0
0.08	0.24	-1.0
0.08	0.246	-1.0
0.08	0.252	-1.0
0.08	0.258	-1.0
0.08	0.264	-1.0
0.08	0.27	-1.0
0.08	0.276	-1.0
0.08	0.282	-1.0
0.08	0.288	-1.0
0.08	0.294	-1.0
0.08	0.3	-1.0
0.08	0.306	-1.0
0.08	0.312	-1.0
0.08	0.318	-1.0
0.08	0.324	-1.0
0.08	0.33	-1.0
0.08	0.336	-1.0
0.08	0.342	-1.0
0.08	0.348	-1.0
0.08	0.354	-1.0
0.08	0.36	-1.0
0.08	0.366	-1.0
0.08	0.372	-1.0
0.08	0.378	-1.0
0.08	0.384	-1.0
0.08	0.39	-1.0
0.08	0.396	-1.0
0.08	0.402	-1.0
0.08	0.408	-1.0
0.08	0.414	-1.0
0.08	0.42	-1.0
0.08	0.426	-1.0
0.08	0.432	-1.0
0.08	0.438	-1.0
0.08	0.444	-1.0
0.08	0.45	-1.0
0.08	0.456	-1.0
0.08	0.462	-1.0
0.08	0.468	-1.0
0.08	0.474	-1.0
0.08	0.48	-1.0
0.08	0.486	-1.0
0.08	0.492	-1.0
0.08	0.498	-1.0
0.08	0.504	-1.0
0.08	0.51	-1.0
0.08	0.516	-1.0
0.08	0.522	-1.0
0.08	0.528	-1.0
0.08	0.534	-1.0
0.08	0.54	-1.0
0.08	0.546	-1.0
0.08	0.552	-1.0
0.08	0.558	-1.0
0.08	0.564	-1.0
0.08	0.57	-1.0
0.08	0.576	-1.0
0.08	0.582	-1.0
0.08	0.588	-1.0
0.08	0.594	-1.0
0.08	0.6	-1.0
0.085	0.006	0.004736831841656821
0.085	0.012	0.004585766222444469
0.085	0.018	0.004365375293082859
0.085	0.024	0.0040787272989790315
0.085	0.03	0.0037307650973038447
0.085	0.036	0.00332785065954625
0.085	0.042	0.002877297872313366
0.085	0.048	0.002386909271216017
0.085	0.054	0.001864584164476055
0.085	0.06	0.0013179935448316233
0.085	0.066	0.0007543397155525554
0.085	0.072	0.00018014363295919668
0.085	0.078	-1.0
0.085	0.084	-1.0
0.085	0.09	-1.0
0.085	0.096	-1.0
0.085	0.102	-1.0
0.085	0.108	-1.0
0.085	0.114	-1.0
0.085	0.12	-1.0
0.085	0.126	-1.0
0.085	0.132	-1.0
0.085	0.138	-1.0
0.085	0.144	-1.0
0.085	0.15	-1.0
0.085	0.156	-1.0
0.085	0.162	-1.0
0.085	0.168	-1.0
0.085	0.174	-1.0
0.085	0.18	-1.0
0.085	0.186	-1.0
0.085	0.192	-1.0
0.085	0.198	-1.0
0.085	0.204	-1.0
0.085	0.21	-1.0
0.085	0.216	-1.0
0.085	0.222	-1.0
0.085	0.228	-1.0
0.085	0.234	-1.0
0.085	0.24	-1.0
0.085	0.246	-1.0
0.085	0.252	-1.0
0.085	0.258	-1.0
0.085	0.264	-1.0
0.085	0.27	-1.0
0.085	0.276	-1.0
0.085	0.282	-1.0
0.085	0.288	-1.0
0.085	0.294	-1.0
0.085	0.3	-1.0
0.085	0.306	-1.0
0.085	0.312	-1.0
0.085	0.318	-1.0
0.085	0.324	-1.0
0.085	0.33	-1.0
0.085	0.336	-1.0
0.085	0.342	-1.0
0.085	0.348	-1.0
0.085	0.354	-1.0
0.085	0.36	-1.0
0.085	0.366	-1.0
0.085	0.372	-1.0
0.085	0.378	-1.0
0.085	0.384	-1.0
0.085	0.39	-1.0
0.085	0.396	-1.0
0.085	0.402	-1.0
0.085	0.408	-1.0
0.085	0.414	-1.0
0.085	0.42	-1.0
0.085	0.426	-1.0
0.085	0.432	-1.0
0.085	0.438	-1.0
0.085	0.444	-1.0
0.085	0.45	-1.0
0.085	0.456	-1.0
0.085	0.462	-1.0
0.085	0.468	-1.0
0.085	0.474	-1.0
0.085	0.48	-1.0
0.085	0.486	-1.0
0.085	0.492	-1.0
0.085	0.498	-1.0
0.085	0.504	-1.0
0.085	0.51	-1.0
0.085	0.516	-1.0
0.085	0.522	-1.0
0.085	0.528	-1.0
0.085	0.534	-1.0
0.085	0.54	-1.0
0.085	0.546	-1.0
0.085	0.552	-1.0
0.085	0.558	-1.0
0.085	0.564	-1.0
0.085	0.57	-1.0
0.085	0.576	-1.0
0.085	0.582	-1.0
0.085	0.588	-1.0
0.085	0.594	-1.0
0.085	0.6	-1.0
0.09	0.006	0.005233627189873585
0.09	0.012	0.005088857602896526
0.09	0.018	0.004881012270592167
0.09	0.024	0.004612336571883543
0.09	0.03	0.004286787781785346
0.09	0.036	0.003909651788954919
0.09	0.042	0.0034871569379475993
0.09	0.048	0.003026082442415233
0.09	0.054	0.0025333913032134126
0.09	0.06	0.0020159762639473805
0.09	0.066	0.0014804068166792803
0.09	0.072	0.0009327460669664506
0.09	0.078	0.0003784848006557011
0.09	0.084	-1.0
0.09	0.09	-1.0
0.09	0.096	-1.0
0.09	0.102	-1.0
0.09	0.108	-1.0
0.09	0.114	-1.0
0.09	0.12	-1.0
0.09	0.126	-1.0
0.09	0.132	-1.0
0.09	0.138	-1.0
0.09	0.144	-1.0
0.09	0.15	-1.0
0.09	0.156	-1.0
0.09	0.162	-1.0
0.09	0.168	-1.0
0.09	0.174	-1.0
0.09	0.18	-1.0
0.09	0.186	-1.0
0.09	0.192	-1.0
0.09	0.198	-1.0
0.09	0.204	-1.0
0.09	0.21	-1.0
0.09	0.216	-1.0
0.09	0.222	-1.0
0.09	0.228	-1.0
0.09	0.234	-1.0
0.09	0.24	-1.0
0.09	0.246	-1.0
0.09	0.252	-1.0
0.09	0.258	-1.0
0.09	0.264	-1.0
0.09	0.27	-1.0
0.09	0.276	-1.0
0.09	0.282	-1.0
0.09	0.288	-1.0
0.09	0.294	-1.0
0.09	0.3	-1.0
0.09	0.306	-1.0
0.09	0.312	-1.0
0.09	0.318	-1.0
0.09	0.324	-1.0
0.09	0.33	-1.0
0.09	0.336	-1.0