Variables="alpha" "beta" "omega"
Zone T="R=500s" I=300 J=80
0.01	0.101	-0.5253202477748122
0.01	0.102	-0.5267206209662343
0.01	0.103	-0.5281092635330641
0.01	0.104	-0.5294863475065651
0.01	0.105	-0.5308520407851784
0.01	0.106	-0.5322065072582843
0.01	0.107	-0.5335499069881737
0.01	0.108	-0.5348823962624772
0.01	0.109	-0.5362041277862651
0.01	0.11	-0.5375152507329646
0.01	0.111	-0.5388159109289737
0.01	0.112	-0.5401062508657141
0.01	0.113	-0.5413864098930173
0.01	0.114	-0.542656524235235
0.01	0.115	-0.5439167271726548
0.01	0.116	-0.5451671490536231
0.01	0.117	-0.5464079174224358
0.01	0.118	-0.5476391570734641
0.01	0.119	-0.5488609902007434
0.01	0.12	-0.5500735363848035
0.01	0.121	-0.5512769127172196
0.01	0.122	-0.552471233876194
0.01	0.123	-0.5536566121744678
0.01	0.124	-0.5548331576389173
0.01	0.125	-0.5560009780742957
0.01	0.126	-0.5571601791344796
0.01	0.127	-0.5583108643529329
0.01	0.128	-0.559453135227301
0.01	0.129	-0.5605870912680571
0.01	0.13	-0.5617128300528664
0.01	0.131	-0.5628304472844671
0.01	0.132	-0.5639400368249977
0.01	0.133	-0.5650416907550874
0.01	0.134	-0.5661354994243504
0.01	0.135	-0.5672215514924682
0.01	0.136	-0.5682999339853912
0.01	0.137	-0.5693707322907281
0.01	0.138	-0.5704340302785487
0.01	0.139	-0.5714899102799643
0.01	0.14	-0.5725384531354852
0.01	0.141	-0.5735797382322353
0.01	0.142	-0.5746138435760041
0.01	0.143	-0.5756408457985336
0.01	0.144	-0.5766608201419768
0.01	0.145	-0.5776738406135935
0.01	0.146	-0.5786799798752464
0.01	0.147	-0.5796793094077074
0.01	0.148	-0.5806718994272781
0.01	0.149	-0.5816578189847854
0.01	0.15	-0.5826371359948687
0.01	0.151	-0.5836099172025719
0.01	0.152	-0.5845762282779748
0.01	0.153	-0.5855361338033823
0.01	0.154	-0.5864896973110175
0.01	0.155	-0.587436981310014
0.01	0.156	-0.5883780472968451
0.01	0.157	-0.5893129557986566
0.01	0.158	-0.5902417663577435
0.01	0.159	-0.591164537608791
0.01	0.16	-0.5920813272512705
0.01	0.161	-0.592992192105454
0.01	0.162	-0.5938971880967774
0.01	0.163	-0.5947963703193614
0.01	0.164	-0.5956897929848811
0.01	0.165	-0.5965775095354896
0.01	0.166	-0.5974595725796209
0.01	0.167	-0.5983360339465856
0.01	0.168	-0.5992069447086369
0.01	0.169	-0.6000723551736019
0.01	0.17	-0.6009323149203959
0.01	0.171	-0.6017868728102908
0.01	0.172	-0.6026360769940348
0.01	0.173	-0.6034799749327382
0.01	0.174	-0.6043186134105197
0.01	0.175	-0.6051520385629434
0.01	0.176	-0.6059802958506958
0.01	0.177	-0.6068034301215235
0.01	0.178	-0.6076214855972124
0.01	0.179	-0.6084345058790234
0.01	0.18	-0.6092425339799004
0.01	0.181	-0.6100456123289908
0.01	0.182	-0.6108437827744522
0.01	0.183	-0.6116370866034972
0.01	0.184	-0.6124255645506566
0.01	0.185	-0.6132092568265057
0.01	0.186	-0.613988203078255
0.01	0.187	-0.6147624424721733
0.01	0.188	-0.6155320136298671
0.01	0.189	-0.6162969546837308
0.01	0.19	-0.617057303291307
0.01	0.191	-0.6178130966140206
0.01	0.192	-0.6185643713526278
0.01	0.193	-0.6193111637139737
0.01	0.194	-0.6200535094871364
0.01	0.195	-0.6207914439992653
0.01	0.196	-0.6215250021341809
0.01	0.197	-0.6222542183652306
0.01	0.198	-0.6229791267173206
0.01	0.199	-0.6236997608226721
0.01	0.2	-0.6244161538996051
0.01	0.201	-0.6251283387558764
0.01	0.202	-0.6258363478364232
0.01	0.203	-0.6265402131578364
0.01	0.204	-0.6272399664045774
0.01	0.205	-0.6279356388565392
0.01	0.206	-0.6286272614456022
0.01	0.207	-0.6293148647382951
0.01	0.208	-0.6299984789538421
0.01	0.209	-0.6306781339493944
0.01	0.21	-0.6313538592588702
0.01	0.211	-0.6320256840922542
0.01	0.212	-0.6326936373048546
0.01	0.213	-0.6333577474347744
0.01	0.214	-0.6340180427192286
0.01	0.215	-0.6346745510653117
0.01	0.216	-0.6353273000934455
0.01	0.217	-0.6359763170936507
0.01	0.218	-0.6366216290844653
0.01	0.219	-0.6372632627797071
0.01	0.22	-0.6379012446238306
0.01	0.221	-0.638535600750953
0.01	0.222	-0.6391663570420353
0.01	0.223	-0.639793539098488
0.01	0.224	-0.6404171722401909
0.01	0.225	-0.6410372815534067
0.01	0.226	-0.6416538918370324
0.01	0.227	-0.6422670276300423
0.01	0.228	-0.6428767132481994
0.01	0.229	-0.6434829727439675
0.01	0.23	-0.6440858299251317
0.01	0.231	-0.644685308355295
0.01	0.232	-0.6452814313823915
0.01	0.233	-0.6458742220987748
0.01	0.234	-0.6464637033770735
0.01	0.235	-0.6470498978720501
0.01	0.236	-0.6476328280090283
0.01	0.237	-0.6482125159954342
0.01	0.238	-0.6487889838292858
0.01	0.239	-0.6493622532885842
0.01	0.24	-0.6499323459467088
0.01	0.241	-0.6504992831808206
0.01	0.242	-0.6510630861499963
0.01	0.243	-0.6516237758354482
0.01	0.244	-0.6521813729994743
0.01	0.245	-0.6527358982238616
0.01	0.246	-0.6532873718971379
0.01	0.247	-0.6538358142280702
0.01	0.248	-0.6543812452289861
0.01	0.249	-0.654923684741473
0.01	0.25	-0.6554631524117193
0.01	0.251	-0.655999667730765
0.01	0.252	-0.6565332499977934
0.01	0.253	-0.6570639183499268
0.01	0.254	-0.6575916917535068
0.01	0.255	-0.6581165890062065
0.01	0.256	-0.6586386287432578
0.01	0.257	-0.6591578294377648
0.01	0.258	-0.6596742094030555
0.01	0.259	-0.6601877867911409
0.01	0.26	-0.6606985796080165
0.01	0.261	-0.661206605704871
0.01	0.262	-0.6617118827637014
0.01	0.263	-0.6622144283396552
0.01	0.264	-0.6627142598405671
0.01	0.265	-0.6632113945248191
0.01	0.266	-0.6637058494848467
0.01	0.267	-0.6641976417163119
0.01	0.268	-0.6646867880413715
0.01	0.269	-0.665173305164721
0.01	0.27	-0.6656572096423953
0.01	0.271	-0.6661385179118307
0.01	0.272	-0.66661724625215
0.01	0.273	-0.6670934108482074
0.01	0.274	-0.6675670277336759
0.01	0.275	-0.6680381128215566
0.01	0.276	-0.6685066819055346
0.01	0.277	-0.6689727506353954
0.01	0.278	-0.6694363345706592
0.01	0.279	-0.6698974491292553
0.01	0.28	-0.6703561096138778
0.01	0.281	-0.6708123312226291
0.01	0.282	-0.6712661290181046
0.01	0.283	-0.6717175179740564
0.01	0.284	-0.6721665129201843
0.01	0.285	-0.672613128605534
0.01	0.286	-0.6730573796515394
0.01	0.287	-0.6734992805816119
0.01	0.288	-0.6739388457992646
0.01	0.289	-0.6743760896175663
0.01	0.29	-0.6748110262429469
0.01	0.291	-0.6752436697611937
0.01	0.292	-0.6756740341849244
0.01	0.293	-0.6761021334088031
0.01	0.294	-0.6765279812263132
0.01	0.295	-0.676951591337575
0.01	0.296	-0.6773729773505592
0.01	0.297	-0.6777921527734017
0.01	0.298	-0.6782091310153039
0.01	0.299	-0.6786239254086284
0.01	0.3	-0.6790365491665127
0.01	0.301	-0.6794470154357961
0.01	0.302	-0.6798553372588317
0.01	0.303	-0.6802615276100781
0.01	0.304	-0.6806655993389322
0.01	0.305	-0.6810675652419182
0.01	0.306	-0.6814674380155127
0.01	0.307	-0.6818652302762342
0.01	0.308	-0.6822609545476163
0.01	0.309	-0.6826546232838091
0.01	0.31	-0.6830462488340939
0.01	0.311	-0.683435843510402
0.01	0.312	-0.6838234194904503
0.01	0.313	-0.6842089889119884
0.01	0.314	-0.6845925638169359
0.01	0.315	-0.6849741561813795
0.01	0.316	-0.6853537778927096
0.01	0.317	-0.6857314407679458
0.01	0.318	-0.6861071565523597
0.01	0.319	-0.6864809369122356
0.01	0.32	-0.686852793443719
0.01	0.321	-0.6872227376740158
0.01	0.322	-0.6875907810510221
0.01	0.323	-0.6879569349559449
0.01	0.324	-0.6883212106979101
0.01	0.325	-0.6886836195221472
0.01	0.326	-0.6890441725949206
0.01	0.327	-0.6894028810318714
0.01	0.328	-0.6897597558628187
0.01	0.329	-0.6901148080677565
0.01	0.33	-0.690468048543984
0.01	0.331	-0.6908194881430059
0.01	0.332	-0.6911691376296282
0.01	0.333	-0.6915170077252801
0.01	0.334	-0.6918631090835404
0.01	0.335	-0.6922074522900569
0.01	0.336	-0.6925500478652195
0.01	0.337	-0.6928909062793288
0.01	0.338	-0.6932300379473529
0.01	0.339	-0.6935674532064647
0.01	0.34	-0.6939031623354022
0.01	0.341	-0.6942371755795108
0.01	0.342	-0.6945695030884775
0.01	0.343	-0.694900154995242
0.01	0.344	-0.695229141349438
0.01	0.345	-0.6955564721478308
0.01	0.346	-0.6958821573311862
0.01	0.347	-0.6962062067923582
0.01	0.348	-0.6965286303701937
0.01	0.349	-0.6968494378368775
0.01	0.35	-0.6971686389249588
0.01	0.351	-0.6974862433057398
0.01	0.352	-0.6978022606029433
0.01	0.353	-0.6981167003832321
0.01	0.354	-0.6984295721659153
0.01	0.355	-0.6987408854165119
0.01	0.356	-0.6990506495477106
0.01	0.357	-0.6993588739344389
0.01	0.358	-0.6996655678874159
0.01	0.359	-0.6999707406725137
0.01	0.36	-0.7002744015164445
0.01	0.361	-0.7005765595786093
0.01	0.362	-0.7008772239887816
0.01	0.363	-0.7011764038219117
0.01	0.364	-0.701474108101953
0.01	0.365	-0.7017703458202381
0.01	0.366	-0.7020651259014932
0.01	0.367	-0.7023584572461051
0.01	0.368	-0.7026503486897411
0.01	0.369	-0.7029408090404435
0.01	0.37	-0.7032298470475166
0.01	0.371	-0.7035174714298016
0.01	0.372	-0.7038036908505664
0.01	0.373	-0.7040885139343613
0.01	0.374	-0.7043719492614092
0.01	0.375	-0.7046540053769568
0.01	0.376	-0.7049346907787826
0.01	0.377	-0.7052140139114883
0.01	0.378	-0.7054919832014168
0.01	0.379	-0.7057686070121733
0.01	0.38	-0.7060438936811584
0.01	0.381	-0.7063178514992415
0.01	0.382	-0.7065904887148364
0.01	0.383	-0.7068618135484703
0.01	0.384	-0.7071318341637755
0.01	0.385	-0.7074005586975491
0.01	0.386	-0.7076679952386828
0.01	0.387	-0.707934151850943
0.01	0.388	-0.7081990365554304
0.01	0.389	-0.7084626573214232
0.01	0.39	-0.7087250221014273
0.01	0.391	-0.7089861387910488
0.01	0.392	-0.7092460152732623
0.01	0.393	-0.7095046593667207
0.01	0.394	-0.7097620788695393
0.01	0.395	-0.7100182815478986
0.01	0.396	-0.710273275119711
0.01	0.397	-0.7105270672704794
0.01	0.398	-0.7107796656641333
0.01	0.399	-0.7110310779150099
0.01	0.4	-0.7112813115946743
0.02	0.101	-0.2682226011672576
0.02	0.102	-0.2688832210470669
0.02	0.103	-0.2695385785515849
0.02	0.104	-0.27018874528046066
0.02	0.105	-0.27083379143504416
0.02	0.106	-0.27147378565120905
0.02	0.107	-0.27210879504551644
0.02	0.108	-0.27273888527218665
0.02	0.109	-0.2733641205660381
0.02	0.11	-0.27398456377768593
0.02	0.111	-0.27460027641865026
0.02	0.112	-0.27521131871373417
0.02	0.113	-0.2758177495994756
0.02	0.114	-0.27641962681174176
0.02	0.115	-0.2770170068844012
0.02	0.116	-0.2776099452055373
0.02	0.117	-0.278198496018855
0.02	0.118	-0.2787827124986211
0.02	0.119	-0.2793626467471064
0.02	0.12	-0.2799383498349151
0.02	0.121	-0.28050987182993875
0.02	0.122	-0.2810772618273074
0.02	0.123	-0.28164056796345754
0.02	0.124	-0.28219983745728544
0.02	0.125	-0.2827551166289954
0.02	0.126	-0.28330645091849505
0.02	0.127	-0.28385388491466007
0.02	0.128	-0.28439746237807245
0.02	0.129	-0.28493722625303763
0.02	0.13	-0.28547321870936404
0.02	0.131	-0.28600548113290286
0.02	0.132	-0.2865340541746975
0.02	0.133	-0.28705897774917033
0.02	0.134	-0.2875802910591827
0.02	0.135	-0.2880980326189619
0.02	0.136	-0.28861224026611343
0.02	0.137	-0.2891229511727247
0.02	0.138	-0.28963020187823696
0.02	0.139	-0.29013402828108853
0.02	0.14	-0.2906344656805352
0.02	0.141	-0.2911315487670541
0.02	0.142	-0.29162531165280664
0.02	0.143	-0.29211578788674974
0.02	0.144	-0.29260301044700887
0.02	0.145	-0.293087011775252
0.02	0.146	-0.29356782379777946
0.02	0.147	-0.2940454778939926
0.02	0.148	-0.2945200049651805
0.02	0.149	-0.29499143539293105
0.02	0.15	-0.29545979909979503
0.02	0.151	-0.2959251255056904
0.02	0.152	-0.2963874436081662
0.02	0.153	-0.29684678191789815
0.02	0.154	-0.29730316852301963
0.02	0.155	-0.29775663107130734
0.02	0.156	-0.2982071967915286
0.02	0.157	-0.298654892507642
0.02	0.158	-0.2990997446218353
0.02	0.159	-0.29954177915777114
0.02	0.16	-0.29998102174081664
0.02	0.161	-0.300417497627991
0.02	0.162	-0.3008512316938299
0.02	0.163	-0.30128224846239726
0.02	0.164	-0.30171057209748203
0.02	0.165	-0.30213622640766996
0.02	0.166	-0.30255923487648
0.02	0.167	-0.302979620640222
0.02	0.168	-0.3033974065164793
0.02	0.169	-0.3038126149994623
0.02	0.17	-0.30422526827706287
0.02	0.171	-0.3046353882211448
0.02	0.172	-0.30504299640594834
0.02	0.173	-0.30544811411211353
0.02	0.174	-0.30585076233096387
0.02	0.175	-0.30625096177142896
0.02	0.176	-0.3066487328633302
0.02	0.177	-0.3070440957643165
0.02	0.178	-0.3074370703652214
0.02	0.179	-0.30782767629889884
0.02	0.18	-0.3082159329399988
0.02	0.181	-0.3086018594048031
0.02	0.182	-0.30898547457252357
0.02	0.183	-0.3093667970759683
0.02	0.184	-0.3097458453105331
0.02	0.185	-0.3101226374412897
0.02	0.186	-0.3104971913964596
0.02	0.187	-0.3108695248863122
0.02	0.188	-0.31123965540643267
0.02	0.189	-0.3116076002232606
0.02	0.19	-0.31197337639896383
0.02	0.191	-0.3123370007885678
0.02	0.192	-0.3126984900383248
0.02	0.193	-0.31305786060195245
0.02	0.194	-0.313415128722542
0.02	0.195	-0.3137703104599515
0.02	0.196	-0.31412342167712815
0.02	0.197	-0.314474478057414
0.02	0.198	-0.3148234950982212
0.02	0.199	-0.3151704881167578
0.02	0.2	-0.3155154722512473
0.02	0.201	-0.3158584624642806
0.02	0.202	-0.3161994735515094
0.02	0.203	-0.31653852014481854
0.02	0.204	-0.31687561670144276
0.02	0.205	-0.31721077751930693
0.02	0.206	-0.31754401673655924
0.02	0.207	-0.31787534834524134
0.02	0.208	-0.3182047861681769
0.02	0.209	-0.3185323438828684
0.02	0.21	-0.31885803502093185
0.02	0.211	-0.31918187296189876
0.02	0.212	-0.3195038709461182
0.02	0.213	-0.31982404207280385
0.02	0.214	-0.3201423992948919
0.02	0.215	-0.3204589554358134
0.02	0.216	-0.32077372317546177
0.02	0.217	-0.3210867150780302
0.02	0.218	-0.3213979435577697
0.02	0.219	-0.32170742091255583
0.02	0.22	-0.3220151593112579
0.02	0.221	-0.32232117079809774
0.02	0.222	-0.3226254672878933
0.02	0.223	-0.3229280605962198
0.02	0.224	-0.32322896239345783
0.02	0.225	-0.3235281842509011
0.02	0.226	-0.3238257376255013
0.02	0.227	-0.32412163385023873
0.02	0.228	-0.32441588415364747
0.02	0.229	-0.32470849965674525
0.02	0.23	-0.3249994913754007
0.02	0.231	-0.3252888702022444
0.02	0.232	-0.32557664694531335
0.02	0.233	-0.32586283229875446
0.02	0.234	-0.3261474368630659
0.02	0.235	-0.32643047113284673
0.02	0.236	-0.32671194550651617
0.02	0.237	-0.32699187028245347
0.02	0.238	-0.327270255671939
0.02	0.239	-0.32754711178150525
0.02	0.24	-0.3278224486323041
0.02	0.241	-0.3280962761512029
0.02	0.242	-0.3283686041834948
0.02	0.243	-0.32863944247163157
0.02	0.244	-0.328908800679824
0.02	0.245	-0.32917668838730235
0.02	0.246	-0.32944311508048413
0.02	0.247	-0.3297080901740029
0.02	0.248	-0.3299716229905555
0.02	0.249	-0.3302337227759643
0.02	0.25	-0.3304943986942635
0.02	0.251	-0.3307536598329501
0.02	0.252	-0.33101151519530686
0.02	0.253	-0.3312679737182739
0.02	0.254	-0.3315230442545165
0.02	0.255	-0.3317767355875446
0.02	0.256	-0.3320290564239866
0.02	0.257	-0.33228001539898716
0.02	0.258	-0.33252962107801326
0.02	0.259	-0.33277788195481334
0.02	0.26	-0.333024806452177
0.02	0.261	-0.33327040292028526
0.02	0.262	-0.33351467965546905
0.02	0.263	-0.33375764486946735
0.02	0.264	-0.3339993067228645
0.02	0.265	-0.3342396733068598
0.02	0.266	-0.3344787526420177
0.02	0.267	-0.33471655269498757
0.02	0.268	-0.3349530813620169
0.02	0.269	-0.3351883464840341
0.02	0.27	-0.3354223558389838
0.02	0.271	-0.3356551171443127
0.02	0.272	-0.3358866380574206
0.02	0.273	-0.33611692617690814
0.02	0.274	-0.3363459890461381
0.02	0.275	-0.3365738341563377
0.02	0.276	-0.3368004689233662
0.02	0.277	-0.3370259007313844
0.02	0.278	-0.3372501368973192
0.02	0.279	-0.33747318468108417
0.02	0.28	-0.3376950512990634
0.02	0.281	-0.33791574390694157
0.02	0.282	-0.3381352696127249
0.02	0.283	-0.33835363546847813
0.02	0.284	-0.33857084848038066
0.02	0.285	-0.3387869156016735
0.02	0.286	-0.33900184373657666
0.02	0.287	-0.33921563974103536
0.02	0.288	-0.339428310421029
0.02	0.289	-0.33963986253680717
0.02	0.29	-0.33985030279545764
0.02	0.291	-0.34005963787158333
0.02	0.292	-0.34026787437630945
0.02	0.293	-0.3404750188871469
0.02	0.294	-0.3406810779331925
0.02	0.295	-0.3408860579966702
0.02	0.296	-0.3410899655169686
0.02	0.297	-0.34129280689611824
0.02	0.298	-0.3414945884857206
0.02	0.299	-0.34169531659549696
0.02	0.3	-0.34189499749984037
0.02	0.301	-0.3420936374223289
0.02	0.302	-0.3422912425554139
0.02	0.303	-0.3424878190441624
0.02	0.304	-0.3426833729926614
0.02	0.305	-0.3428779104751343
0.02	0.306	-0.3430714375137372
0.02	0.307	-0.3432639601028119
0.02	0.308	-0.34345548418962907
0.02	0.309	-0.34364601569469755
0.02	0.31	-0.34383556048965386
0.02	0.311	-0.3440241244172295
0.02	0.312	-0.34421171327824135
0.02	0.313	-0.3443983328398716
0.02	0.314	-0.3445839888351674
0.02	0.315	-0.3447686869578857
0.02	0.316	-0.3449524328705866
0.02	0.317	-0.34513523220158904
0.02	0.318	-0.34531709053957765
0.02	0.319	-0.34549801344590797
0.02	0.32	-0.3456780064444979
0.02	0.321	-0.34585707502521396
0.02	0.322	-0.34603522465218467
0.02	0.323	-0.3462124607499434
0.02	0.324	-0.3463887887107831
0.02	0.325	-0.3465642139017171
0.02	0.326	-0.3467387416516281
0.02	0.327	-0.3469123772619165
0.02	0.328	-0.3470851260011481
0.02	0.329	-0.3472569931142705
0.02	0.33	-0.34742798380150325
0.02	0.331	-0.3475981032487011
0.02	0.332	-0.3477673566082753
0.02	0.333	-0.3479357489934486
0.02	0.334	-0.3481032855008674
0.02	0.335	-0.3482699711895292
0.02	0.336	-0.3484358111048698
0.02	0.337	-0.3486008102430167
0.02	0.338	-0.34876497358451747
0.02	0.339	-0.3489283060902442
0.02	0.34	-0.34909081267384534
0.02	0.341	-0.34925249824001064
0.02	0.342	-0.34941336765436704
0.02	0.343	-0.34957342576775075
0.02	0.344	-0.3497326773905872
0.02	0.345	-0.34989112731948574
0.02	0.346	-0.3500487803207989
0.02	0.347	-0.35020564114056585
0.02	0.348	-0.3503617144857015
0.02	0.349	-0.3505170050553531
0.02	0.35	-0.3506715175122978
0.02	0.351	-0.3508252564967663
0.02	0.352	-0.35097822662990835
0.02	0.353	-0.3511304325055363
0.02	0.354	-0.35128187869234107
0.02	0.355	-0.3514325697361629
0.02	0.356	-0.35158251015887243
0.02	0.357	-0.35173170446462454
0.02	0.358	-0.35188015712695053
0.02	0.359	-0.3520278725984618
0.02	0.36	-0.35217485531786813
0.02	0.361	-0.3523211096888987
0.02	0.362	-0.3524666400996945
0.02	0.363	-0.352611450914243
0.02	0.364	-0.3527555464774035
0.02	0.365	-0.35289893111467585
0.02	0.366	-0.35304160912327254
0.02	0.367	-0.35318358478262624
0.02	0.368	-0.35332486234979965
0.02	0.369	-0.3534654460664466
0.02	0.37	-0.3536053401464234
0.02	0.371	-0.35374454878656814
0.02	0.372	-0.3538830761710831
0.02	0.373	-0.3540209264430681
0.02	0.374	-0.3541581037497658
0.02	0.375	-0.35429461219615327
0.02	0.376	-0.354430455893603
0.02	0.377	-0.35456563890954257
0.02	0.378	-0.3547001653084642
0.02	0.379	-0.3548340391237947
0.02	0.38	-0.35496726438078463
0.02	0.381	-0.3550998450782613
0.02	0.382	-0.35523178519837073
0.02	0.383	-0.3553630887073271
0.02	0.384	-0.35549375955125384
0.02	0.385	-0.35562380165399554
0.02	0.386	-0.3557532189309983
0.02	0.387	-0.3558820152681507
0.02	0.388	-0.3560101945460871
0.02	0.389	-0.3561377606134621
0.02	0.39	-0.3562647173167191
0.02	0.391	-0.35639106847459273
0.02	0.392	-0.3565168178854266
0.02	0.393	-0.35664196934256864
0.02	0.394	-0.35676652661624364
0.02	0.395	-0.3568904934601376
0.02	0.396	-0.35701387360763315
0.02	0.397	-0.35713667077986117
0.02	0.398	-0.3572588886791681
0.02	0.399	-0.3573805309963857
0.02	0.4	-0.35750160140273074
0.03	0.101	-0.18230187663100555
0.03	0.102	-0.1827187366429075
0.03	0.103	-0.18313242748899639
0.03	0.104	-0.18354298813079678
0.03	0.105	-0.1839504581115795
0.03	0.106	-0.18435487614371723
0.03	0.107	-0.18475628015035947
0.03	0.108	-0.185154707267897
0.03	0.109	-0.1855501938777326
0.03	0.11	-0.18594277563357572
0.03	0.111	-0.1863324874627749
0.03	0.112	-0.1867193636114458
0.03	0.113	-0.1871034376418527
0.03	0.114	-0.18748474246331803
0.03	0.115	-0.18786331034225617
0.03	0.116	-0.18823917293359058
0.03	0.117	-0.18861236127526446
0.03	0.118	-0.18898290582490607
0.03	0.119	-0.18935083646109535
0.03	0.12	-0.18971618250801855
0.03	0.121	-0.1900789727417715
0.03	0.122	-0.19043923541465177
0.03	0.123	-0.19079699825697125
0.03	0.124	-0.19115228850159263
0.03	0.125	-0.19150513288644902
0.03	0.126	-0.1918555576719193
0.03	0.127	-0.19220358865659667
0.03	0.128	-0.1925492511802975
0.03	0.129	-0.19289257014705058
0.03	0.13	-0.193233570016218
0.03	0.131	-0.19357227483611575
0.03	0.132	-0.19390870824035017
0.03	0.133	-0.1942428934578152
0.03	0.134	-0.19457485333107488
0.03	0.135	-0.19490461031438985
0.03	0.136	-0.19523218649355364
0.03	0.137	-0.19555760359040736
0.03	0.138	-0.19588088296097367
0.03	0.139	-0.19620204562547816
0.03	0.14	-0.19652111225593216
0.03	0.141	-0.19683810319343145
0.03	0.142	-0.19715303845892107
0.03	0.143	-0.19746593775107193
0.03	0.144	-0.19777682045909334
0.03	0.145	-0.19808570567405623
0.03	0.146	-0.19839261218535514
0.03	0.147	-0.19869755849286352
0.03	0.148	-0.19900056281593412
0.03	0.149	-0.19930164309640744
0.03	0.15	-0.1996008169997855
0.03	0.151	-0.1998981019341325
0.03	0.152	-0.2001935150418612
0.03	0.153	-0.20048707321546316
0.03	0.154	-0.2007787930953779
0.03	0.155	-0.20106869107781383
0.03	0.156	-0.20135678332904264
0.03	0.157	-0.2016430857711591
0.03	0.158	-0.20192761410411858
0.03	0.159	-0.20221038380544862
0.03	0.16	-0.20249141012826335
0.03	0.161	-0.20277070811458045
0.03	0.162	-0.20304829260188847
0.03	0.163	-0.2033241782048534
0.03	0.164	-0.2035983793566935
0.03	0.165	-0.20387091027732837
0.03	0.166	-0.20414178500423982
0.03	0.167	-0.20441101737492404
0.03	0.168	-0.2046786210524227
0.03	0.169	-0.2049446095058116
0.03	0.17	-0.20520899603070392
0.03	0.171	-0.2054717937476788
0.03	0.172	-0.20573301560657659
0.03	0.173	-0.2059926743814091
0.03	0.174	-0.20625078269333877
0.03	0.175	-0.20650735298713618
0.03	0.176	-0.20676239755632395
0.03	0.177	-0.20701592853823003
0.03	0.178	-0.2072679579148072
0.03	0.179	-0.2075184975200013
0.03	0.18	-0.20776755903973848
0.03	0.181	-0.2080151540073911
0.03	0.182	-0.2082612938268146
0.03	0.183	-0.20850598975552254
0.03	0.184	-0.20874925291443486
0.03	0.185	-0.20899109428920676
0.03	0.186	-0.2092315247345871
0.03	0.187	-0.20947055497772396
0.03	0.188	-0.2097081956113136
0.03	0.189	-0.20994445711351825
0.03	0.19	-0.2101793498325683
0.03	0.191	-0.2104128839955817
0.03	0.192	-0.21064506971553512
0.03	0.193	-0.21087591698228791
0.03	0.194	-0.21110543567721657
0.03	0.195	-0.21133363557085164
0.03	0.196	-0.21156052631757444
0.03	0.197	-0.2117861174627137
0.03	0.198	-0.21201041844957674
0.03	0.199	-0.2122334386182699
0.03	0.2	-0.21245518719545523
0.03	0.201	-0.2126756733132089
0.03	0.202	-0.21289490600743283
0.03	0.203	-0.21311289421011378
0.03	0.204	-0.21332964675654006
0.03	0.205	-0.21354517239425866
0.03	0.206	-0.2137594797717446
0.03	0.207	-0.21397257744659393
0.03	0.208	-0.21418447388513018
0.03	0.209	-0.21439517746718634
0.03	0.21	-0.21460469648332153
0.03	0.211	-0.2148130391410471
0.03	0.212	-0.2150202135606107
0.03	0.213	-0.21522622778185527
0.03	0.214	-0.2154310897626038
0.03	0.215	-0.2156348073769385
0.03	0.216	-0.2158373884206255
0.03	0.217	-0.21603884061568274
0.03	0.218	-0.2162391716003192
0.03	0.219	-0.21643838894660697
0.03	0.22	-0.21663650014354371
0.03	0.221	-0.21683351261042424
0.03	0.222	-0.21702943369673308
0.03	0.223	-0.2172242706753482
0.03	0.224	-0.2174180307556208
0.03	0.225	-0.2176107210708368
0.03	0.226	-0.21780234869890627
0.03	0.227	-0.2179929206361183
0.03	0.228	-0.21818244382211138
0.03	0.229	-0.21837092512601428
0.03	0.23	-0.2185583713642981
0.03	0.231	-0.21874478927645613
0.03	0.232	-0.21893018555152566
0.03	0.233	-0.21911456680594296
0.03	0.234	-0.21929793961448532
0.03	0.235	-0.21948031047176883
0.03	0.236	-0.21966168582602827
0.03	0.237	-0.21984207206447737
0.03	0.238	-0.22002147551985862
0.03	0.239	-0.2201999024714198
0.03	0.24	-0.22037735913491246
0.03	0.241	-0.22055385167841937
0.03	0.242	-0.22072938621432125
0.03	0.243	-0.22090396880728902
0.03	0.244	-0.22107760546237287
0.03	0.245	-0.22125030213703287
0.03	0.246	-0.221422064739003
0.03	0.247	-0.22159289912258773
0.03	0.248	-0.22176281109971002
0.03	0.249	-0.2219318064280105
0.03	0.25	-0.2220998908189629
0.03	0.251	-0.22226706993880072
0.03	0.252	-0.22243334940371434
0.03	0.253	-0.22259873478749237
0.03	0.254	-0.22276323161843675
0.03	0.255	-0.22292684537378304
0.03	0.256	-0.22308958149750763
0.03	0.257	-0.22325144538479624
0.03	0.258	-0.22341244238682573
0.03	0.259	-0.22357257781361906
0.03	0.26	-0.22373185693087563
0.03	0.261	-0.22389028497330188
0.03	0.262	-0.22404786712346295
0.03	0.263	-0.22420460852546523
0.03	0.264	-0.22436051429109521
0.03	0.265	-0.22451558948775371
0.03	0.266	-0.22466983914282845
0.03	0.267	-0.22482326825173396
0.03	0.268	-0.22497588176607053
0.03	0.269	-0.225127684601234
0.03	0.27	-0.22527868164465112
0.03	0.271	-0.22542887773566442
0.03	0.272	-0.2255782776842316
0.03	0.273	-0.2257268862650008
0.03	0.274	-0.22587470821508998
0.03	0.275	-0.22602174824126878
0.03	0.276	-0.22616801101425354
0.03	0.277	-0.22631350116831
0.03	0.278	-0.22645822331058243
0.03	0.279	-0.22660218201247945
0.03	0.28	-0.2267453818148683
0.03	0.281	-0.2268878272230834
0.03	0.282	-0.2270295227124161
0.03	0.283	-0.22717047273079916
0.03	0.284	-0.22731068169085958
0.03	0.285	-0.22745015397686016
0.03	0.286	-0.22758889394293708
0.03	0.287	-0.2277269059123403
0.03	0.288	-0.22786419418438597
0.03	0.289	-0.22800076301880057
0.03	0.29	-0.22813661666035454
0.03	0.291	-0.22827175931423982
0.03	0.292	-0.22840619516091343
0.03	0.293	-0.22853992835808767
0.03	0.294	-0.22867296303061732
0.03	0.295	-0.22880530328088908
0.03	0.296	-0.22893695317571977
0.03	0.297	-0.22906791676778818
0.03	0.298	-0.22919819807619018
0.03	0.299	-0.22932780109585646
0.03	0.3	-0.22945672979712242
0.03	0.301	-0.22958498812303252
0.03	0.302	-0.22971257999505726
0.03	0.303	-0.2298395093084239
0.03	0.304	-0.22996577993204054
0.03	0.305	-0.2300913957124158
0.03	0.306	-0.23021636047487762
0.03	0.307	-0.23034067801663388
0.03	0.308	-0.23046435211533056
0.03	0.309	-0.23058738652338542
0.03	0.31	-0.23070978497272543
0.03	0.311	-0.23083155116719706
0.03	0.312	-0.23095268879823241
0.03	0.313	-0.23107320152606026
0.03	0.314	-0.23119309299286345
0.03	0.315	-0.23131236682040154
0.03	0.316	-0.23143102660531817
0.03	0.317	-0.23154907592427476
0.03	0.318	-0.23166651834025093
0.03	0.319	-0.23178335738390685
0.03	0.32	-0.2318995965732066
0.03	0.321	-0.23201523940586644
0.03	0.322	-0.23213028935558586
0.03	0.323	-0.23224474987531235
0.03	0.324	-0.23235862440572996
0.03	0.325	-0.23247191636283127
0.03	0.326	-0.23258462914295083
0.03	0.327	-0.23269676612685997
0.03	0.328	-0.2328083306710586
0.03	0.329	-0.2329193261193156
0.03	0.33	-0.23302975579130158
0.03	0.331	-0.2331396229969348
0.03	0.332	-0.23324893101832658
0.03	0.333	-0.2333576831250704
0.03	0.334	-0.23346588256748482
0.03	0.335	-0.23357353257778904
0.03	0.336	-0.23368063637495698
0.03	0.337	-0.23378719715510016
0.03	0.338	-0.2338932181010401
0.03	0.339	-0.2339987023759862
0.03	0.34	-0.23410365312833561
0.03	0.341	-0.2342080734904828
0.03	0.342	-0.23431196657646394
0.03	0.343	-0.23441533548440877
0.03	0.344	-0.23451818329806745
0.03	0.345	-0.2346205130837688
0.03	0.346	-0.23472232789307207
0.03	0.347	-0.23482363075955884
0.03	0.348	-0.23492442470427527
0.03	0.349	-0.23502471273377112
0.03	0.35	-0.2351244978298488
0.03	0.351	-0.23522378297513646
0.03	0.352	-0.23532257112368477
0.03	0.353	-0.2354208652213117
0.03	0.354	-0.23551866819732248
0.03	0.355	-0.2356159829671382
0.03	0.356	-0.23571281243122458
0.03	0.357	-0.23580915947340703
0.03	0.358	-0.23590502697172813
0.03	0.359	-0.23600041778012454
0.03	0.36	-0.23609533474217703
0.03	0.361	-0.23618978069262545
0.03	0.362	-0.2362837584437472
0.03	0.363	-0.23637727079980095
0.03	0.364	-0.23647032055216274
0.03	0.365	-0.23656291047813063
0.03	0.366	-0.23665504333536672
0.03	0.367	-0.23674672188093943
0.03	0.368	-0.23683794884823908
0.03	0.369	-0.23692872696004208
0.03	0.37	-0.23701905893113143
0.03	0.371	-0.23710894746058966
0.03	0.372	-0.23719839523126615
0.03	0.373	-0.23728740491989136
0.03	0.374	-0.23737597918515566
0.03	0.375	-0.23746412068066805
0.03	0.376	-0.23755183203877947
0.03	0.377	-0.23763911588884376
0.03	0.378	-0.2377259748362664
0.03	0.379	-0.2378124114912314
0.03	0.38	-0.2378984284380884
0.03	0.381	-0.23798402825663836
0.03	0.382	-0.23806921350926152
0.03	0.383	-0.23815398675257718
0.03	0.384	-0.23823835053448034
0.03	0.385	-0.23832230737938645
0.03	0.386	-0.23840585980960388
0.03	0.387	-0.23848901033772232
0.03	0.388	-0.2385717614592925
0.03	0.389	-0.23865411566278968
0.03	0.39	-0.2387360754248532
0.03	0.391	-0.2388176432108134
0.03	0.392	-0.2388988214744429
0.03	0.393	-0.23897961266184337
0.03	0.394	-0.2390600192061991
0.03	0.395	-0.2391400435299772
0.03	0.396	-0.23921968804634722
0.03	0.397	-0.2392989551565849
0.03	0.398	-0.2393778472554255
0.03	0.399	-0.23945636672358364
0.03	0.4	-0.2395345159309175
0.04	0.101	-0.12201981140851619
0.04	0.102	-0.12304986936577136
0.04	0.103	-0.12406372186374523
0.04	0.104	-0.12506141800773546
0.04	0.105	-0.12604300170487168
0.04	0.106	-0.1270085116540109
0.04	0.107	-0.1279579813031597
0.04	0.108	-0.12889143902807987
0.04	0.109	-0.1298089080382708
0.04	0.11	-0.1307104065551002
0.04	0.111	-0.13159594780398573
0.04	0.112	-0.1324655401779094
0.04	0.113	-0.13331918721010352
0.04	0.114	-0.13415688789535363
0.04	0.115	-0.13497863655726278
0.04	0.116	-0.13578442310687225
0.04	0.117	-0.1365742332276523
0.04	0.118	-0.1373480483573699
0.04	0.119	-0.13810584600712505
0.04	0.12	-0.13884759985752754
0.04	0.121	-0.1395732798974599
0.04	0.122	-0.14028285267685373
0.04	0.123	-0.1409762815199135
0.04	0.124	-0.14165352660622407
0.04	0.125	-0.14231454529530915
0.04	0.126	-0.14295929240237232
0.04	0.127	-0.14358772024877495
0.04	0.128	-0.14419977913028267
0.04	0.129	-0.14479541741989121
0.04	0.13	-0.1453745819654435
0.04	0.131	-0.14593721819004554
0.04	0.132	-0.14648327066292216
0.04	0.133	-0.14701268309800136
0.04	0.134	-0.14752539892633312
0.04	0.135	-0.14802136140984157
0.04	0.136	-0.14850051418632984
0.04	0.137	-0.14896280143995339
0.04	0.138	-0.14940816835298326
0.04	0.139	-0.14983656147339083
0.04	0.14	-0.15024792898002828
0.04	0.141	-0.1506422212419702
0.04	0.142	-0.15101939106291606
0.04	0.143	-0.1513793941436259
0.04	0.144	-0.15172218941871943
0.04	0.145	-0.15204773954436088
0.04	0.146	-0.15235601126235054
0.04	0.147	-0.15264697581465264
0.04	0.148	-0.152920609321724
0.04	0.149	-0.15317689329401674
0.04	0.15	-0.15341581490829997
0.04	0.151	-0.15363736751031176
0.04	0.152	-0.15384155095357174
0.04	0.153	-0.15402837209632245
0.04	0.154	-0.15419784503933354
0.04	0.155	-0.15434999164947713
0.04	0.156	-0.15448484180483227
0.04	0.157	-0.15460243383642464
0.04	0.158	-0.15470281483873882