Variables="alpha" "beta" "omega"
Zone T="1" I=400 J=80
0.01	0.101	-0.6121367487672489
0.01	0.102	-0.6138026287778715
0.01	0.103	-0.6154546106311304
0.01	0.104	-0.6170928965044497
0.01	0.105	-0.6187176836337719
0.01	0.106	-0.6203291646235396
0.01	0.107	-0.6219275275356949
0.01	0.108	-0.6235129560413889
0.01	0.109	-0.6250856295983164
0.01	0.11	-0.6266457235049199
0.01	0.111	-0.6281934091466033
0.01	0.112	-0.6297288540058044
0.01	0.113	-0.6312522218463033
0.01	0.114	-0.6327636728318221
0.01	0.115	-0.6342633636051925
0.01	0.116	-0.6357514474028912
0.01	0.117	-0.6372280742034716
0.01	0.118	-0.6386933907355405
0.01	0.119	-0.6401475406623574
0.01	0.12	-0.6415906646150477
0.01	0.121	-0.6430229003124276
0.01	0.122	-0.6444443826178136
0.01	0.123	-0.6458552436412746
0.01	0.124	-0.6472556128638821
0.01	0.125	-0.6486456170690478
0.01	0.126	-0.6500253805886947
0.01	0.127	-0.6513950252665737
0.01	0.128	-0.6527546705386723
0.01	0.129	-0.6541044335491848
0.01	0.13	-0.655444429139763
0.01	0.131	-0.6567747699900292
0.01	0.132	-0.6580955666220463
0.01	0.133	-0.6594069274664707
0.01	0.134	-0.660708958916237
0.01	0.135	-0.6620017654147778
0.01	0.136	-0.6632854494340822
0.01	0.137	-0.6645601116428238
0.01	0.138	-0.6658258508212906
0.01	0.139	-0.6670827639812923
0.01	0.14	-0.6683309464048451
0.01	0.141	-0.6695704916864028
0.01	0.142	-0.6708014917841433
0.01	0.143	-0.6720240370152699
0.01	0.144	-0.6732382161484474
0.01	0.145	-0.674444116416907
0.01	0.146	-0.675641823566237
0.01	0.147	-0.6768314218952887
0.01	0.148	-0.6780129942426146
0.01	0.149	-0.6791866220966821
0.01	0.15	-0.680352385594333
0.01	0.151	-0.6815103635179092
0.01	0.152	-0.6826606333740141
0.01	0.153	-0.683803271425163
0.01	0.154	-0.684938352676991
0.01	0.155	-0.6860659509409603
0.01	0.156	-0.6871861388537233
0.01	0.157	-0.6882989878970655
0.01	0.158	-0.6894045684402929
0.01	0.159	-0.6905029497478999
0.01	0.16	-0.6915941999962854
0.01	0.161	-0.692678386355356
0.01	0.162	-0.6937555749000022
0.01	0.163	-0.6948258307858107
0.01	0.164	-0.6958892181052928
0.01	0.165	-0.6969458000481005
0.01	0.166	-0.697995638835187
0.01	0.167	-0.6990387957833819
0.01	0.168	-0.7000753312779354
0.01	0.169	-0.7011053048853463
0.01	0.17	-0.7021287752471101
0.01	0.171	-0.7031458001848884
0.01	0.172	-0.704156436716118
0.01	0.173	-0.7051607410050441
0.01	0.174	-0.7061587684512255
0.01	0.175	-0.7071505736796447
0.01	0.176	-0.7081362105536038
0.01	0.177	-0.7091157321808373
0.01	0.178	-0.710089190935897
0.01	0.179	-0.7110566384960791
0.01	0.18	-0.7120181258303709
0.01	0.181	-0.7129737032246455
0.01	0.182	-0.7139234202799704
0.01	0.183	-0.7148673259565699
0.01	0.184	-0.7158054685277588
0.01	0.185	-0.7167378956976739
0.01	0.186	-0.717664654496006
0.01	0.187	-0.7185857913553303
0.01	0.188	-0.7195013521191962
0.01	0.189	-0.7204113820409445
0.01	0.19	-0.721315925799763
0.01	0.191	-0.7222150274960945
0.01	0.192	-0.7231087307033176
0.01	0.193	-0.7239970784159081
0.01	0.194	-0.7248801131226609
0.01	0.195	-0.7257578767862004
0.01	0.196	-0.7266304108592496
0.01	0.197	-0.7274977562665498
0.01	0.198	-0.7283599534494786
0.01	0.199	-0.729217042373824
0.01	0.2	-0.7300690625179388
0.01	0.201	-0.7309160529042537
0.01	0.202	-0.7317580520747013
0.01	0.203	-0.7325950981256981
0.01	0.204	-0.733427228740907
0.01	0.205	-0.7342544811059656
0.01	0.206	-0.735076892027193
0.01	0.207	-0.7358944978857493
0.01	0.208	-0.7367073346346277
0.01	0.209	-0.7375154378105008
0.01	0.21	-0.7383188425942464
0.01	0.211	-0.7391175837157783
0.01	0.212	-0.7399116955679579
0.01	0.213	-0.7407012121454224
0.01	0.214	-0.7414861670652468
0.01	0.215	-0.742266593582677
0.01	0.216	-0.743042524620445
0.01	0.217	-0.7438139926881944
0.01	0.218	-0.7445810299896374
0.01	0.219	-0.7453436683783409
0.01	0.22	-0.7461019393821814
0.01	0.221	-0.7468558741736133
0.01	0.222	-0.7476055036121356
0.01	0.223	-0.7483508582367591
0.01	0.224	-0.7490919682740358
0.01	0.225	-0.7498288636367054
0.01	0.226	-0.7505615739246609
0.01	0.227	-0.7512901284677516
0.01	0.228	-0.7520145562524537
0.01	0.229	-0.7527348860126419
0.01	0.23	-0.7534511461872775
0.01	0.231	-0.7541633649223742
0.01	0.232	-0.7548715701096783
0.01	0.233	-0.7555757893380711
0.01	0.234	-0.7562760499592818
0.01	0.235	-0.7569723790377036
0.01	0.236	-0.7576648033735185
0.01	0.237	-0.7583533495416174
0.01	0.238	-0.759038043836639
0.01	0.239	-0.75971891231132
0.01	0.24	-0.7603959807691993
0.01	0.241	-0.7610692747972627
0.01	0.242	-0.7617388197068404
0.01	0.243	-0.7624046406109446
0.01	0.244	-0.7630667623830645
0.01	0.245	-0.7637252096368997
0.01	0.246	-0.7643800068001951
0.01	0.247	-0.765031178082792
0.01	0.248	-0.7656787474648771
0.01	0.249	-0.7663227386810606
0.01	0.25	-0.7669631753236245
0.01	0.251	-0.7676000807228849
0.01	0.252	-0.7682334780203555
0.01	0.253	-0.7688633901631081
0.01	0.254	-0.7694898398891421
0.01	0.255	-0.7701128497506148
0.01	0.256	-0.7707324420881884
0.01	0.257	-0.771348639074362
0.01	0.258	-0.7719614626796211
0.01	0.259	-0.7725709346988192
0.01	0.26	-0.7731770767442503
0.01	0.261	-0.7737799102355121
0.01	0.262	-0.774379456408438
0.01	0.263	-0.7749757363662937
0.01	0.264	-0.7755687709996865
0.01	0.265	-0.7761585810237205
0.01	0.266	-0.7767451870281002
0.01	0.267	-0.7773286093949231
0.01	0.268	-0.777908868364553
0.01	0.269	-0.778485984002567
0.01	0.27	-0.7790599762372671
0.01	0.271	-0.7796308648093085
0.01	0.272	-0.7801986693385127
0.01	0.273	-0.7807634092646999
0.01	0.274	-0.7813251038854047
0.01	0.275	-0.7818837723564785
0.01	0.276	-0.7824394336878037
0.01	0.277	-0.7829921067173444
0.01	0.278	-0.7835418101828763
0.01	0.279	-0.7840885626472265
0.01	0.28	-0.7846323825484323
0.01	0.281	-0.785173288175792
0.01	0.282	-0.7857112977002217
0.01	0.283	-0.7862464291476069
0.01	0.284	-0.786778700412672
0.01	0.285	-0.7873081292688084
0.01	0.286	-0.7878347333303911
0.01	0.287	-0.7883585301216554
0.01	0.288	-0.7888795370091063
0.01	0.289	-0.7893977712693785
0.01	0.29	-0.7899132500239398
0.01	0.291	-0.7904259902997308
0.01	0.292	-0.7909360089743538
0.01	0.293	-0.7914433228419685
0.01	0.294	-0.7919479485397115
0.01	0.295	-0.7924499026301021
0.01	0.296	-0.7929492015282812
0.01	0.297	-0.7934458615618013
0.01	0.298	-0.7939398989302205
0.01	0.299	-0.7944313297280223
0.01	0.3	-0.7949201699493592
0.01	0.301	-0.7954064354570158
0.01	0.302	-0.7958901420385955
0.01	0.303	-0.7963713053591929
0.01	0.304	-0.7968499409822593
0.01	0.305	-0.7973260643669791
0.01	0.306	-0.7977996908834245
0.01	0.307	-0.7982708357808895
0.01	0.308	-0.7987395142286282
0.01	0.309	-0.7992057412836506
0.01	0.31	-0.7996695319249246
0.01	0.311	-0.800130901010408
0.01	0.312	-0.8005898633227054
0.01	0.313	-0.8010464335442649
0.01	0.314	-0.8015006262789189
0.01	0.315	-0.8019524560056269
0.01	0.316	-0.8024019371418226
0.01	0.317	-0.8028490840147628
0.01	0.318	-0.8032939108460719
0.01	0.319	-0.8037364317765295
0.01	0.32	-0.8041766608796747
0.01	0.321	-0.8046146121245943
0.01	0.322	-0.8050502993835301
0.01	0.323	-0.8054837364700469
0.01	0.324	-0.8059149371063623
0.01	0.325	-0.8063439149339668
0.01	0.326	-0.8067706834986994
0.01	0.327	-0.8071952562915959
0.01	0.328	-0.8076176467001359
0.01	0.329	-0.8080378680613669
0.01	0.33	-0.8084559336001168
0.01	0.331	-0.8088718564891116
0.01	0.332	-0.809285649807819
0.01	0.333	-0.8096973265936851
0.01	0.334	-0.8101068997646504
0.01	0.335	-0.8105143821999496
0.01	0.336	-0.8109197866778007
0.01	0.337	-0.8113231259280901
0.01	0.338	-0.8117244125964413
0.01	0.339	-0.8121236592690946
0.01	0.34	-0.8125208784393055
0.01	0.341	-0.8129160825620234
0.01	0.342	-0.8133092839870026
0.01	0.343	-0.8137004950411593
0.01	0.344	-0.8140897279368065
0.01	0.345	-0.8144769948559151
0.01	0.346	-0.8148623078873432
0.01	0.347	-0.8152456790770115
0.01	0.348	-0.815627120394207
0.01	0.349	-0.816006643741031
0.01	0.35	-0.8163842609715973
0.01	0.351	-0.8167599838506779
0.01	0.352	-0.8171338241140221
0.01	0.353	-0.8175057934065029
0.01	0.354	-0.8178759033175638
0.01	0.355	-0.8182441654001691
0.01	0.356	-0.8186105911079667
0.01	0.357	-0.8189751918740785
0.01	0.358	-0.8193379790440956
0.01	0.359	-0.8196989639165672
0.01	0.36	-0.8200581577283691
0.01	0.361	-0.8204155716677443
0.01	0.362	-0.8207712168523861
0.01	0.363	-0.8211251043621803
0.01	0.364	-0.8214772451967572
0.01	0.365	-0.8218276503296665
0.01	0.366	-0.8221763306478705
0.01	0.367	-0.8225232970076863
0.01	0.368	-0.822868560200475
0.01	0.369	-0.8232121309662095
0.01	0.37	-0.8235540199942413
0.01	0.371	-0.8238942379204812
0.01	0.372	-0.8242327953297975
0.01	0.373	-0.8245697027557286
0.01	0.374	-0.8249049706764839
0.01	0.375	-0.8252386095136269
0.01	0.376	-0.8255706296542263
0.01	0.377	-0.8259010414260508
0.01	0.378	-0.8262298551178953
0.01	0.379	-0.8265570809435306
0.01	0.38	-0.8268827290953051
0.01	0.381	-0.8272068097078284
0.01	0.382	-0.8275293328692549
0.01	0.383	-0.8278503086008371
0.01	0.384	-0.8281697469117052
0.01	0.385	-0.8284876577477984
0.01	0.386	-0.8288040509847577
0.01	0.387	-0.8291189365071634
0.01	0.388	-0.8294323240987252
0.01	0.389	-0.8297442235192276
0.01	0.39	-0.8300546444946221
0.01	0.391	-0.830363596694841
0.01	0.392	-0.8306710897505899
0.01	0.393	-0.8309771332368586
0.01	0.394	-0.8312817366996574
0.01	0.395	-0.8315849096306084
0.01	0.396	-0.8318866614849298
0.01	0.397	-0.8321870016827129
0.01	0.398	-0.8324859395739002
0.01	0.399	-0.8327834844983126
0.01	0.4	-0.8330796457450728
0.01	0.401	-0.8333744325533221
0.01	0.402	-0.833667854123069
0.01	0.403	-0.8339599196172212
0.01	0.404	-0.8342506381558442
0.01	0.405	-0.8345400188199353
0.01	0.406	-0.8348280706612691
0.01	0.407	-0.8351148026682488
0.01	0.408	-0.8354002238129526
0.01	0.409	-0.8356843430149631
0.01	0.41	-0.8359671691621391
0.01	0.411	-0.8362487110992046
0.01	0.412	-0.836528977632138
0.01	0.413	-0.8368079775345278
0.01	0.414	-0.8370857195336966
0.01	0.415	-0.83736221232253
0.01	0.416	-0.8376374645808469
0.01	0.417	-0.8379114849012163
0.01	0.418	-0.8381842818853594
0.01	0.419	-0.8384558640737149
0.01	0.42	-0.8387262399846734
0.01	0.421	-0.838995418081489
0.01	0.422	-0.8392634068110237
0.01	0.423	-0.839530214586153
0.01	0.424	-0.8397958497605407
0.01	0.425	-0.84006032067877
0.01	0.426	-0.8403236356350062
0.01	0.427	-0.8405858028947463
0.01	0.428	-0.8408468306941773
0.01	0.429	-0.8411067272176512
0.01	0.43	-0.8413655006343612
0.01	0.431	-0.8416231590775585
0.01	0.432	-0.8418797106355732
0.01	0.433	-0.842135163365058
0.01	0.434	-0.8423895252975896
0.01	0.435	-0.8426428044347529
0.01	0.436	-0.8428950087311285
0.01	0.437	-0.843146146124675
0.01	0.438	-0.8433962245074529
0.01	0.439	-0.8436452517457749
0.01	0.44	-0.843893235673543
0.01	0.441	-0.8441401840882529
0.01	0.442	-0.8443861047715007
0.01	0.443	-0.844631005446386
0.01	0.444	-0.8448748938409187
0.01	0.445	-0.8451177776082913
0.01	0.446	-0.8453596644126454
0.01	0.447	-0.8456005618479256
0.01	0.448	-0.8458404775255158
0.01	0.449	-0.8460794189797607
0.01	0.45	-0.8463173937379868
0.01	0.451	-0.8465544093068934
0.01	0.452	-0.846790473128553
0.01	0.453	-0.8470255926507295
0.01	0.454	-0.8472597752721754
0.01	0.455	-0.8474930283791743
0.01	0.456	-0.8477253593072976
0.01	0.457	-0.8479567753656899
0.01	0.458	-0.8481872838609469
0.01	0.459	-0.8484168920350789
0.01	0.46	-0.8486456071346051
0.01	0.461	-0.8488734363505711
0.01	0.462	-0.8491003868603454
0.01	0.463	-0.8493264658136344
0.01	0.464	-0.849551680317165
0.01	0.465	-0.8497760374657105
0.01	0.466	-0.8499995443229216
0.01	0.467	-0.8502222079190181
0.01	0.468	-0.8504440352743257
0.01	0.469	-0.8506650333508313
0.01	0.47	-0.8508852091076515
0.01	0.471	-0.8511045694663947
0.01	0.472	-0.8513231213280688
0.01	0.473	-0.8515408715673773
0.01	0.474	-0.8517578270210401
0.01	0.475	-0.851973994516303
0.01	0.476	-0.8521893808369829
0.01	0.477	-0.8524039927510216
0.01	0.478	-0.8526178370021044
0.01	0.479	-0.852830920287971
0.01	0.48	-0.8530432493208537
0.01	0.481	-0.8532548307357286
0.01	0.482	-0.8534656711864447
0.01	0.483	-0.85367577727208
0.01	0.484	-0.8538851555796134
0.01	0.485	-0.8540938126786024
0.01	0.486	-0.8543017550850219
0.01	0.487	-0.8545089893140031
0.01	0.488	-0.8547155218630926
0.01	0.489	-0.8549213591700437
0.01	0.49	-0.8551265076792014
0.01	0.491	-0.8553309738040494
0.01	0.492	-0.8555347639178957
0.01	0.493	-0.8557378843886905
0.01	0.494	-0.8559403415475807
0.01	0.495	-0.8561421417085628
0.01	0.496	-0.8563432911601364
0.01	0.497	-0.8565437961651357
0.01	0.498	-0.8567436629594358
0.01	0.499	-0.8569428977622933
0.01	0.5	-0.8571415067582786
0.02	0.101	-0.31269496492075444
0.02	0.102	-0.3134813110460928
0.02	0.103	-0.31426141703344024
0.02	0.104	-0.31503536417103256
0.02	0.105	-0.3158032350054574
0.02	0.106	-0.3165651102643754
0.02	0.107	-0.31732106889470346
0.02	0.108	-0.3180711881183552
0.02	0.109	-0.31881554349467667
0.02	0.11	-0.31955420896378584
0.02	0.111	-0.32028725687453785
0.02	0.112	-0.32101475808331353
0.02	0.113	-0.3217367819380374
0.02	0.114	-0.3224533963749814
0.02	0.115	-0.3231646679134007
0.02	0.116	-0.3238706617267418
0.02	0.117	-0.3245714416714251
0.02	0.118	-0.3252670703252166
0.02	0.119	-0.32595760902494214
0.02	0.12	-0.32664311788850825
0.02	0.121	-0.3273236558611644
0.02	0.122	-0.3279992807525309
0.02	0.123	-0.32867004925131016
0.02	0.124	-0.3293360169691125
0.02	0.125	-0.3299972384542468
0.02	0.126	-0.33065376724682344
0.02	0.127	-0.33130565585998667
0.02	0.128	-0.3319529558704576
0.02	0.129	-0.33259571788545306
0.02	0.13	-0.33323399158760575
0.02	0.131	-0.33386782577194013
0.02	0.132	-0.33449726834567167
0.02	0.133	-0.33512236637061055
0.02	0.134	-0.3357431660808634
0.02	0.135	-0.3363597128805194
0.02	0.136	-0.33697205139850034
0.02	0.137	-0.3375802254873392
0.02	0.138	-0.3381842782385384
0.02	0.139	-0.33878425202702855
0.02	0.14	-0.33938018849574625
0.02	0.141	-0.33997212857310105
0.02	0.142	-0.3405601125471712
0.02	0.143	-0.3411441799908603
0.02	0.144	-0.34172436987023286
0.02	0.145	-0.3423007204711769
0.02	0.146	-0.34287326949916974
0.02	0.147	-0.343442054019881
0.02	0.148	-0.3440071105274901
0.02	0.149	-0.3445684749265905
0.02	0.15	-0.345126182562541
0.02	0.151	-0.3456802682065101
0.02	0.152	-0.3462307661278551
0.02	0.153	-0.3467777100276154
0.02	0.154	-0.34732113310186724
0.02	0.155	-0.34786106805384437
0.02	0.156	-0.34839754708010456
0.02	0.157	-0.34893060188979164
0.02	0.158	-0.3494602637347227
0.02	0.159	-0.3499865633833286
0.02	0.16	-0.35050953116208244
0.02	0.161	-0.3510291969526887
0.02	0.162	-0.3515455901993419
0.02	0.163	-0.35205873992384146
0.02	0.164	-0.35256867473379516
0.02	0.165	-0.3530754228192877
0.02	0.166	-0.35357901198705294
0.02	0.167	-0.35407946963892495
0.02	0.168	-0.3545768227942134
0.02	0.169	-0.3550710981099481
0.02	0.17	-0.3555623218702108
0.02	0.171	-0.3560505199838879
0.02	0.172	-0.35653571803685863
0.02	0.173	-0.3570179412374034
0.02	0.174	-0.3574972144743193
0.02	0.175	-0.35797356230907545
0.02	0.176	-0.3584470089552305
0.02	0.177	-0.3589175783290383
0.02	0.178	-0.3593852940167363
0.02	0.179	-0.3598501793135596
0.02	0.18	-0.3603122572079924
0.02	0.181	-0.3607715503810279
0.02	0.182	-0.3612280812423303
0.02	0.183	-0.3616818719088337
0.02	0.184	-0.3621329442197693
0.02	0.185	-0.36258131973621527
0.02	0.186	-0.3630270197558766
0.02	0.187	-0.36347006532024906
0.02	0.188	-0.3639104771963674
0.02	0.189	-0.3643482759119823
0.02	0.19	-0.3647834817386436
0.02	0.191	-0.3652161147039079
0.02	0.192	-0.36564619459362513
0.02	0.193	-0.3660737409655068
0.02	0.194	-0.3664987731409748
0.02	0.195	-0.3669213102065815
0.02	0.196	-0.3673413710429901
0.02	0.197	-0.36775897430012183
0.02	0.198	-0.3681741384107181
0.02	0.199	-0.3685868815933176
0.02	0.2	-0.3689972218802462
0.02	0.201	-0.36940517707808773
0.02	0.202	-0.36981076479354036
0.02	0.203	-0.3702140024483854
0.02	0.204	-0.37061490725989565
0.02	0.205	-0.3710134962598706
0.02	0.206	-0.3714097862934724
0.02	0.207	-0.37180379401543684
0.02	0.208	-0.37219553591830595
0.02	0.209	-0.3725850282844375
0.02	0.21	-0.3729722872489462
0.02	0.211	-0.37335732876804656
0.02	0.212	-0.37374016862291826
0.02	0.213	-0.37412082242965267
0.02	0.214	-0.3744993056494961
0.02	0.215	-0.37487563357236653
0.02	0.216	-0.37524982133263174
0.02	0.217	-0.37562188391030293
0.02	0.218	-0.3759918361349678
0.02	0.219	-0.37635969268405434
0.02	0.22	-0.3767254680799759
0.02	0.221	-0.37708917670872383
0.02	0.222	-0.3774508328081813
0.02	0.223	-0.37781045047326206
0.02	0.224	-0.3781680436641378
0.02	0.225	-0.3785236261996619
0.02	0.226	-0.37887721177175926
0.02	0.227	-0.37922881392187974
0.02	0.228	-0.37957844608413205
0.02	0.229	-0.37992612154876293
0.02	0.23	-0.3802718534846706
0.02	0.231	-0.3806156549322241
0.02	0.232	-0.38095753882076155
0.02	0.233	-0.3812975179336327
0.02	0.234	-0.381635604963328
0.02	0.235	-0.3819718124683747
0.02	0.236	-0.38230615289418357
0.02	0.237	-0.3826386385739523
0.02	0.238	-0.38296928174078637
0.02	0.239	-0.3832980944950754
0.02	0.24	-0.383625088840713
0.02	0.241	-0.38395027667037795
0.02	0.242	-0.3842736697766107
0.02	0.243	-0.3845952798453756
0.02	0.244	-0.3849151184530947
0.02	0.245	-0.3852331970895689
0.02	0.246	-0.38554952713472923
0.02	0.247	-0.38586411986514496
0.02	0.248	-0.3861769864744842
0.02	0.249	-0.3864881380529084
0.02	0.25	-0.3867975855976203
0.02	0.251	-0.3871053400105938
0.02	0.252	-0.38741141210598734
0.02	0.253	-0.38771581260690985
0.02	0.254	-0.3880185521485711
0.02	0.255	-0.3883196412681093
0.02	0.256	-0.3886190904369043
0.02	0.257	-0.3889169100244009
0.02	0.258	-0.3892131103217667
0.02	0.259	-0.38950770153244374
0.02	0.26	-0.38980069378531645
0.02	0.261	-0.3900920971238848
0.02	0.262	-0.39038192150791834
0.02	0.263	-0.39067017683284194
0.02	0.264	-0.39095687290075154
0.02	0.265	-0.3912420194476802
0.02	0.266	-0.3915256261281017
0.02	0.267	-0.39180770252574193
0.02	0.268	-0.392088258141959
0.02	0.269	-0.392367302426684
0.02	0.27	-0.3926448447344855
0.02	0.271	-0.39292089435884847
0.02	0.272	-0.39319546052839843
0.02	0.273	-0.39346855239532436
0.02	0.274	-0.3937401790508815
0.02	0.275	-0.3940103495116656
0.02	0.276	-0.39427907272940677
0.02	0.277	-0.39454635759712686
0.02	0.278	-0.3948122129366014
0.02	0.279	-0.3950766475125821
0.02	0.28	-0.3953396700123867
0.02	0.281	-0.39560128907831416
0.02	0.282	-0.39586151328780866
0.02	0.283	-0.3961203511426716
0.02	0.284	-0.39637781110809567
0.02	0.285	-0.3966339015660535
0.02	0.286	-0.3968886308631776
0.02	0.287	-0.39714200727077653
0.02	0.288	-0.3973940390136955
0.02	0.289	-0.39764473424542246
0.02	0.29	-0.39789410109147
0.02	0.291	-0.39814214759061367
0.02	0.292	-0.3983888817536689
0.02	0.293	-0.39863431151968887
0.02	0.294	-0.3988784447866049
0.02	0.295	-0.3991212893922314
0.02	0.296	-0.3993628531223565
0.02	0.297	-0.3996031437148492
0.02	0.298	-0.39984216886358553
0.02	0.299	-0.4000799361949756
0.02	0.3	-0.40031645330032617
0.02	0.301	-0.4005517277225192
0.02	0.302	-0.40078576694665874
0.02	0.303	-0.4010185784180752
0.02	0.304	-0.4012501695302265
0.02	0.305	-0.4014805476308292
0.02	0.306	-0.40170972002442157
0.02	0.307	-0.401937693965956
0.02	0.308	-0.4021644766678216
0.02	0.309	-0.4023900752944577
0.02	0.31	-0.40261449697438634
0.02	0.311	-0.4028377487793789
0.02	0.312	-0.4030598377516154
0.02	0.313	-0.4032807708825491
0.02	0.314	-0.4035005551207264
0.02	0.315	-0.4037191973781994
0.02	0.316	-0.4039367045218808
0.02	0.317	-0.4041530833828009
0.02	0.318	-0.404368340742648
0.02	0.319	-0.4045824833477878
0.02	0.32	-0.40479551790631363
0.02	0.321	-0.40500745108897374
0.02	0.322	-0.4052182895236809
0.02	0.323	-0.4054280398009585
0.02	0.324	-0.40563670847174643
0.02	0.325	-0.40584430205033817
0.02	0.326	-0.40605082702198864
0.02	0.327	-0.40625628982233286
0.02	0.328	-0.4064606968574287
0.02	0.329	-0.40666405449924614
0.02	0.33	-0.40686636907457857
0.02	0.331	-0.40706764688902275
0.02	0.332	-0.4072678941968987
0.02	0.333	-0.40746711723551804
0.02	0.334	-0.40766532219314205
0.02	0.335	-0.4078625152343767
0.02	0.336	-0.40805870248078574
0.02	0.337	-0.4082538900312993
0.02	0.338	-0.40844808394228527
0.02	0.339	-0.408641290244733
0.02	0.34	-0.40883351493051634
0.02	0.341	-0.40902476396654225
0.02	0.342	-0.4092150432823362
0.02	0.343	-0.40940435878236997
0.02	0.344	-0.4095927163309775
0.02	0.345	-0.40978012177285233
0.02	0.346	-0.40996658091333316
0.02	0.347	-0.4101520995263568
0.02	0.348	-0.4103366833661565
0.02	0.349	-0.4105203381496683
0.02	0.35	-0.4107030695634923
0.02	0.351	-0.4108848832714929
0.02	0.352	-0.41106578490363266
0.02	0.353	-0.41124578006154644
0.02	0.354	-0.41142487431849667
0.02	0.355	-0.41160307322241246
0.02	0.356	-0.41178038229354863
0.02	0.357	-0.4119568070231191
0.02	0.358	-0.41213235287143735
0.02	0.359	-0.41230702527629387
0.02	0.36	-0.412480829648895
0.02	0.361	-0.41265377136924963
0.02	0.362	-0.41282585579783043
0.02	0.363	-0.4129970882644922
0.02	0.364	-0.4131674740693229
0.02	0.365	-0.41333701850176385
0.02	0.366	-0.4135057268057478
0.02	0.367	-0.41367360421411803
0.02	0.368	-0.4138406559303046
0.02	0.369	-0.41400688713238054
0.02	0.37	-0.4141723029718542
0.02	0.371	-0.41433690858189776
0.02	0.372	-0.4145007090677413
0.02	0.373	-0.41466370950720755
0.02	0.374	-0.41482591496033583
0.02	0.375	-0.4149873304631067
0.02	0.376	-0.4151479610222083
0.02	0.377	-0.41530781162692704
0.02	0.378	-0.4154668872414013
0.02	0.379	-0.4156251928039005
0.02	0.38	-0.4157827332431835
0.02	0.381	-0.41593951344273067
0.02	0.382	-0.4160955382829894
0.02	0.383	-0.41625081261439734
0.02	0.384	-0.4164053412672857
0.02	0.385	-0.41655912904883446
0.02	0.386	-0.41671218074771516
0.02	0.387	-0.4168645011265535
0.02	0.388	-0.4170160949297599
0.02	0.389	-0.41716696687728505
0.02	0.39	-0.4173171216719709
0.02	0.391	-0.41746656399748355
0.02	0.392	-0.4176152985115048
0.02	0.393	-0.4177633298458753
0.02	0.394	-0.41791066263358256
0.02	0.395	-0.41805730146443104
0.02	0.396	-0.4182032509203423
0.02	0.397	-0.41834851555667457
0.02	0.398	-0.4184930999162506
0.02	0.399	-0.41863700851649394
0.02	0.4	-0.4187802458567658
0.02	0.401	-0.4189228164212831
0.02	0.402	-0.41906472466308664
0.02	0.403	-0.4192059750320908
0.02	0.404	-0.41934657194708896
0.02	0.405	-0.4194865198175605
0.02	0.406	-0.41962582302457085
0.02	0.407	-0.41976448593179017
0.02	0.408	-0.4199025128995974
0.02	0.409	-0.42003990824575704
0.02	0.41	-0.42017667628607286
0.02	0.411	-0.4203128213212147
0.02	0.412	-0.42044834761869704
0.02	0.413	-0.42058325943761954
0.02	0.414	-0.42071756102218905
0.02	0.415	-0.42085125659847944
0.02	0.416	-0.4209843503624719
0.02	0.417	-0.4211168465056771
0.02	0.418	-0.4212487492049977
0.02	0.419	-0.4213800626057076
0.02	0.42	-0.421510790846501
0.02	0.421	-0.4216409380499453
0.02	0.422	-0.421770508316304
0.02	0.423	-0.4218995057309723
0.02	0.424	-0.42202793436507163
0.02	0.425	-0.42215579827246563
0.02	0.426	-0.422283101487084
0.02	0.427	-0.422409848027945
0.02	0.428	-0.42253604190067523
0.02	0.429	-0.42266168709508206
0.02	0.43	-0.4227867875772987
0.02	0.431	-0.42291134730821683
0.02	0.432	-0.4230353702275566
0.02	0.433	-0.4231588602556052
0.02	0.434	-0.42328182130611186
0.02	0.435	-0.4234042572643191
0.02	0.436	-0.4235261720165279
0.02	0.437	-0.4236475694183348
0.02	0.438	-0.4237684533209459
0.02	0.439	-0.4238888275511883
0.02	0.44	-0.42400869593021673
0.02	0.441	-0.4241280622563252
0.02	0.442	-0.42424693031774535
0.02	0.443	-0.4243653038827675
0.02	0.444	-0.4244831867118937
0.02	0.445	-0.4246005825435234
0.02	0.446	-0.4247174951095246
0.02	0.447	-0.42483392811809095
0.02	0.448	-0.42494988526898125
0.02	0.449	-0.42506537024717744
0.02	0.45	-0.42518038672585723
0.02	0.451	-0.42529493834770393
0.02	0.452	-0.42540902876901804
0.02	0.453	-0.4255226616070717
0.02	0.454	-0.4256358404786046
0.02	0.455	-0.4257485689822858
0.02	0.456	-0.42586085070243773
0.02	0.457	-0.42597268920903264
0.02	0.458	-0.42608408806473164
0.02	0.459	-0.4261950508059083
0.02	0.46	-0.4263055809716262
0.02	0.461	-0.4264156820687995
0.02	0.462	-0.4265253576081071
0.02	0.463	-0.42663461107458306
0.02	0.464	-0.4267434459504413
0.02	0.465	-0.42685186569375666
0.02	0.466	-0.4269598737552654
0.02	0.467	-0.4270674735730383
0.02	0.468	-0.4271746685730627
0.02	0.469	-0.4272814621585244
0.02	0.47	-0.4273878577320684
0.02	0.471	-0.4274938586814066
0.02	0.472	-0.42759946837211243
0.02	0.473	-0.42770469016985424
0.02	0.474	-0.4278095274141923
0.02	0.475	-0.42791398344052406
0.02	0.476	-0.4280180615730035
0.02	0.477	-0.4281217651197466
0.02	0.478	-0.42822509737405806
0.02	0.479	-0.42832806161817066
0.02	0.48	-0.42843066112894285
0.02	0.481	-0.4285328991611714
0.02	0.482	-0.4286347789620995
0.02	0.483	-0.42873630376576893
0.02	0.484	-0.4288374767960603
0.02	0.485	-0.42893830125677684
0.02	0.486	-0.4290387803559318
0.02	0.487	-0.4291389172693223
0.02	0.488	-0.4292387151743761
0.02	0.489	-0.4293381772354734
0.02	0.49	-0.4294373066000353
0.02	0.491	-0.4295361064087285
0.02	0.492	-0.4296345797825201
0.02	0.493	-0.4297327298412129
0.02	0.494	-0.42983055968422634
0.02	0.495	-0.4299280724052987
0.02	0.496	-0.43002527108375516
0.02	0.497	-0.4301221587827769
0.02	0.498	-0.43021873857097676
0.02	0.499	-0.43031501348277723
0.02	0.5	-0.4304109865569813
0.03	0.101	-0.21261891012799258
0.03	0.102	-0.21311537503377212
0.03	0.103	-0.21360807888958852
0.03	0.104	-0.21409706405000545
0.03	0.105	-0.2145823770632566
0.03	0.106	-0.2150640635147865
0.03	0.107	-0.2155421680361661
0.03	0.108	-0.21601673434804225
0.03	0.109	-0.21648780529402903
0.03	0.11	-0.21695542284625013
0.03	0.111	-0.2174196281442339
0.03	0.112	-0.21788046150317023
0.03	0.113	-0.2183379624593596
0.03	0.114	-0.21879216976936008
0.03	0.115	-0.2192431214427363
0.03	0.116	-0.2196908547631982
0.03	0.117	-0.22013540630922013
0.03	0.118	-0.22057681195601608
0.03	0.119	-0.22101510691368315
0.03	0.12	-0.22145032574317788
0.03	0.121	-0.22188250235516063
0.03	0.122	-0.2223116700654742
0.03	0.123	-0.22273786155442554
0.03	0.124	-0.22316110892012464
0.03	0.125	-0.22358144370673608
0.03	0.126	-0.2239988968783115
0.03	0.127	-0.22441349886443518
0.03	0.128	-0.22482527954843556
0.03	0.129	-0.22523426831188198
0.03	0.13	-0.22564049401542807
0.03	0.131	-0.22604398503672088
0.03	0.132	-0.22644476926217744
0.03	0.133	-0.2268428741221773
0.03	0.134	-0.22723832656653478
0.03	0.135	-0.227631153110618
0.03	0.136	-0.2280213798345368
0.03	0.137	-0.22840903238714405
0.03	0.138	-0.22879413599421444
0.03	0.139	-0.22917671547858015
0.03	0.14	-0.22955679526652747
0.03	0.141	-0.2299343993925615
0.03	0.142	-0.23030955151212937
0.03	0.143	-0.23068227491001525
0.03	0.144	-0.23105259249839946
0.03	0.145	-0.23142052685003997
0.03	0.146	-0.23178610017954154
0.03	0.147	-0.23214933435995663
0.03	0.148	-0.23251025093990074
0.03	0.149	-0.23286887113915036
0.03	0.15	-0.2332252158570201
0.03	0.151	-0.23357930568886684
0.03	0.152	-0.23393116091431815
0.03	0.153	-0.23428080152956043
0.03	0.154	-0.2346282472266616
0.03	0.155	-0.23497351742005215
0.03	0.156	-0.235316631237119
0.03	0.157	-0.23565760754134432
0.03	0.158	-0.23599646492018084
0.03	0.159	-0.2363332217081299
0.03	0.16	-0.23666789597139043
0.03	0.161	-0.23700050553086296
0.03	0.162	-0.2373310679624491
0.03	0.163	-0.23765960059532315
0.03	0.164	-0.23798612052383722
0.03	0.165	-0.23831064461081797
0.03	0.166	-0.2386331894996926
0.03	0.167	-0.238953771595143
0.03	0.168	-0.23927240709655312
0.03	0.169	-0.23958911198382096
0.03	0.17	-0.2399039020254378
0.03	0.171	-0.2402167927905121
0.03	0.172	-0.24052779963844897
0.03	0.173	-0.24083693773572237
0.03	0.174	-0.24114422205309408
0.03	0.175	-0.241449667373727
0.03	0.176	-0.24175328828994602
0.03	0.177	-0.242055099206787
0.03	0.178	-0.242355114361545
0.03	0.179	-0.24265334780734432
0.03	0.18	-0.2429498134205788
0.03	0.181	-0.24324452491287626
0.03	0.182	-0.24353749583107198
0.03	0.183	-0.24382873955485732
0.03	0.184	-0.24411826930241926
0.03	0.185	-0.24440609813477238
0.03	0.186	-0.24469223895724554
0.03	0.187	-0.2449767045224755
0.03	0.188	-0.24525950743936828
0.03	0.189	-0.24554066016060674
0.03	0.19	-0.24582017500195524
0.03	0.191	-0.24609806413660737
0.03	0.192	-0.24637433958868069
0.03	0.193	-0.24664901325963842
0.03	0.194	-0.24692209691332967
0.03	0.195	-0.2471936021730574
0.03	0.196	-0.2474635405403394
0.03	0.197	-0.2477319233880884
0.03	0.198	-0.24799876195739673
0.03	0.199	-0.24826406737847231
0.03	0.2	-0.24852785064483668
0.03	0.201	-0.24879012264582925
0.03	0.202	-0.24905089414361967
0.03	0.203	-0.24931017579178302
0.03	0.204	-0.24956797812136033
0.03	0.205	-0.2498243115630403
0.03	0.206	-0.25007918643310934
0.03	0.207	-0.2503326129397215
0.03	0.208	-0.25058460118554193
0.03	0.209	-0.2508351611647352
0.03	0.21	-0.2510843027794517
0.03	0.211	-0.251332035821981
0.03	0.212	-0.2515783699887451
0.03	0.213	-0.251823314879882
0.03	0.214	-0.25206687999164673
0.03	0.215	-0.25230907473778946
0.03	0.216	-0.2525499084274236
0.03	0.217	-0.2527893902896545
0.03	0.218	-0.25302752945056356
0.03	0.219	-0.2532643349587268
0.03	0.22	-0.25349981576998337
0.03	0.221	-0.25373398075295867
0.03	0.222	-0.2539668386964378
0.03	0.223	-0.2541983983004581
0.03	0.224	-0.2544286681850433
0.03	0.225	-0.2546576568900285
0.03	0.226	-0.2548853728796281
0.03	0.227	-0.2551118245304903
0.03	0.228	-0.2553370201484568
0.03	0.229	-0.25556096796193634
0.03	0.23	-0.2557836761236031
0.03	0.231	-0.256005152710096
0.03	0.232	-0.2562254057318373
0.03	0.233	-0.25644444312369247
0.03	0.234	-0.2566622727467705
0.03	0.235	-0.25687890240010824
0.03	0.236	-0.2570943398069597
0.03	0.237	-0.25730859262348343
0.03	0.238	-0.25752166845105323
0.03	0.239	-0.257733574803537
0.03	0.24	-0.2579443191516353
0.03	0.241	-0.2581539088872745
0.03	0.242	-0.2583623513507677
0.03	0.243	-0.2585696538105797
0.03	0.244	-0.25877582348370926
0.03	0.245	-0.2589808675147917
0.03	0.246	-0.2591847930007611
0.03	0.247	-0.25938760697508495
0.03	0.248	-0.25958931641397964
0.03	0.249	-0.2597899282328139
0.03	0.25	-0.2599894492967206
0.03	0.251	-0.26018788641463386
0.03	0.252	-0.26038524633601556
0.03	0.253	-0.2605815357592294
0.03	0.254	-0.26077676133470445
0.03	0.255	-0.26097092964943397
0.03	0.256	-0.2611640472520036
0.03	0.257	-0.2613561206230607
0.03	0.258	-0.2615471562111536
0.03	0.259	-0.261737160403591
0.03	0.26	-0.26192613954014177
0.03	0.261	-0.26211409991161394
0.03	0.262	-0.26230104776748786
0.03	0.263	-0.26248698930473763