Variables="alpha" "beta" "omega"
Zone T="1" I=700 J=100
0.01	0.101	-0.9739474126398115
0.01	0.102	-0.9767598280185023
0.01	0.103	-0.9795490259009836
0.01	0.104	-0.982315343906352
0.01	0.105	-0.9850591043922923
0.01	0.106	-0.9877806216171832
0.01	0.107	-0.9904802020041539
0.01	0.108	-0.9931581444427376
0.01	0.109	-0.9958147406868306
0.01	0.11	-0.998450275489791
0.01	0.111	-1.0010650269949446
0.01	0.112	-1.0036592668911206
0.01	0.113	-1.0062332606935451
0.01	0.114	-1.0087872679141427
0.01	0.115	-1.0113215423664785
0.01	0.116	-1.0138363322685215
0.01	0.117	-1.0163318804981196
0.01	0.118	-1.0188084247221032
0.01	0.119	-1.021266197721486
0.01	0.12	-1.0237054272243145
0.01	0.121	-1.0261263364600666
0.01	0.122	-1.0285291439994557
0.01	0.123	-1.0309140641283132
0.01	0.124	-1.0332813067328537
0.01	0.125	-1.0356310777234932
0.01	0.126	-1.0379635788720496
0.01	0.127	-1.0402790081525646
0.01	0.128	-1.0425775597017455
0.01	0.129	-1.0448594240056182
0.01	0.13	-1.047124788032834
0.01	0.131	-1.049373835203527
0.01	0.132	-1.051606745630452
0.01	0.133	-1.053823696119959
0.01	0.134	-1.0560248603162599
0.01	0.135	-1.0582104086892483
0.01	0.136	-1.0603805087425853
0.01	0.137	-1.062535325030471
0.01	0.138	-1.0646750192257852
0.01	0.139	-1.066799750172001
0.01	0.14	-1.0689096740098725
0.01	0.141	-1.0710049442555651
0.01	0.142	-1.0730857117573216
0.01	0.143	-1.0751521248990106
0.01	0.144	-1.0772043295175107
0.01	0.145	-1.0792424690809805
0.01	0.146	-1.0812666847095598
0.01	0.147	-1.0832771151687748
0.01	0.148	-1.0852738970772933
0.01	0.149	-1.0872571647690068
0.01	0.15	-1.0892270504684354
0.01	0.151	-1.0911836842516274
0.01	0.152	-1.09312719428602
0.01	0.153	-1.0950577065305147
0.01	0.154	-1.0969753451678865
0.01	0.155	-1.09888023239022
0.01	0.156	-1.1007724884957713
0.01	0.157	-1.1026522319999543
0.01	0.158	-1.1045195795910157
0.01	0.159	-1.1063746462420339
0.01	0.16	-1.108217545164891
0.01	0.161	-1.110048387950955
0.01	0.162	-1.1118672844843915
0.01	0.163	-1.1136743430670768
0.01	0.164	-1.1154696704723663
0.01	0.165	-1.1172533718783757
0.01	0.166	-1.1190255509881502
0.01	0.167	-1.1207863099648068
0.01	0.168	-1.1225357496289545
0.01	0.169	-1.124273969309578
0.01	0.17	-1.1260010669559595
0.01	0.171	-1.1277171391965661
0.01	0.172	-1.1294222812921975
0.01	0.173	-1.1311165872136035
0.01	0.174	-1.132800149655229
0.01	0.175	-1.1344730600506838
0.01	0.176	-1.13613540859213
0.01	0.177	-1.1377872843548962
0.01	0.178	-1.1394287751203989
0.01	0.179	-1.1410599675692599
0.01	0.18	-1.1426809472539246
0.01	0.181	-1.1442917985940344
0.01	0.182	-1.1458926049534097
0.01	0.183	-1.147483448624392
0.01	0.184	-1.149064410782886
0.01	0.185	-1.150635571685421
0.01	0.186	-1.1521970104972918
0.01	0.187	-1.153748805422282
0.01	0.188	-1.1552910337158078
0.01	0.189	-1.1568237716547232
0.01	0.19	-1.1583470946344336
0.01	0.191	-1.1598610770316928
0.01	0.192	-1.1613657924137435
0.01	0.193	-1.1628613134591292
0.01	0.194	-1.1643477119468952
0.01	0.195	-1.1658250588494887
0.01	0.196	-1.1672934242476196
0.01	0.197	-1.1687528774490792
0.01	0.198	-1.17020348692617
0.01	0.199	-1.1716453204233934
0.01	0.2	-1.173078444851513
0.01	0.201	-1.174502926368779
0.01	0.202	-1.1759188304015968
0.01	0.203	-1.177326221641997
0.01	0.204	-1.1787251640579333
0.01	0.205	-1.1801157209167155
0.01	0.206	-1.1814979547872952
0.01	0.207	-1.1828719275158524
0.01	0.208	-1.1842377003543225
0.01	0.209	-1.1855953338382363
0.01	0.21	-1.186944887884581
0.01	0.211	-1.1882864217341647
0.01	0.212	-1.1896199940403143
0.01	0.213	-1.1909456628327182
0.01	0.214	-1.192263485552327
0.01	0.215	-1.1935735189907017
0.01	0.216	-1.1948758194162166
0.01	0.217	-1.1961704424785322
0.01	0.218	-1.1974574433081548
0.01	0.219	-1.1987368764253565
0.01	0.22	-1.2000087958597754
0.01	0.221	-1.201273255017482
0.01	0.222	-1.2025303069090385
0.01	0.223	-1.2037800039129574
0.01	0.224	-1.2050223979355703
0.01	0.225	-1.206257540393286
0.01	0.226	-1.2074854821561332
0.01	0.227	-1.208706273685326
0.01	0.228	-1.209919964901909
0.01	0.229	-1.2111266052672782
0.01	0.23	-1.2123262437782603
0.01	0.231	-1.2135189290130455
0.01	0.232	-1.2147047090380518
0.01	0.233	-1.2158836315650696
0.01	0.234	-1.217055743734968
0.01	0.235	-1.2182210923943764
0.01	0.236	-1.2193797238789132
0.01	0.237	-1.2205316841813898
0.01	0.238	-1.2216770187961266
0.01	0.239	-1.2228157728845854
0.01	0.24	-1.2239479911747138
0.01	0.241	-1.225073718051017
0.01	0.242	-1.2261929974560677
0.01	0.243	-1.22730587297986
0.01	0.244	-1.2284123878396722
0.01	0.245	-1.2295125848428374
0.01	0.246	-1.2306065065263228
0.01	0.247	-1.2316941949740623
0.01	0.248	-1.2327756919862127
0.01	0.249	-1.2338510389487956
0.01	0.25	-1.2349202769926033
0.01	0.251	-1.235983446828173
0.01	0.252	-1.237040588846317
0.01	0.253	-1.2380917431755298
0.01	0.254	-1.239136949543378
0.01	0.255	-1.240176247414944
0.01	0.256	-1.241209675896271
0.01	0.257	-1.242237273834881
0.01	0.258	-1.2432590797035115
0.01	0.259	-1.244275131762034
0.01	0.26	-1.2452854678683285
0.01	0.261	-1.246290125726112
0.01	0.262	-1.2472891425787522
0.01	0.263	-1.2482825555284294
0.01	0.264	-1.24927040134497
0.01	0.265	-1.2502527164893638
0.01	0.266	-1.2512295372001638
0.01	0.267	-1.2522008994474532
0.01	0.268	-1.2531668388447499
0.01	0.269	-1.2541273908708903
0.01	0.27	-1.2550825906537224
0.01	0.271	-1.2560324731278345
0.01	0.272	-1.2569770729166807
0.01	0.273	-1.2579164244344136
0.01	0.274	-1.2588505618354946
0.01	0.275	-1.2597795190243026
0.01	0.276	-1.2607033296965642
0.01	0.277	-1.2616220272796024
0.01	0.278	-1.2625356449795229
0.01	0.279	-1.263444215756209
0.01	0.28	-1.2643477723752603
0.01	0.281	-1.265246347354346
0.01	0.282	-1.266139972984592
0.01	0.283	-1.2670286813545586
0.01	0.284	-1.267912504329617
0.01	0.285	-1.268791473535689
0.01	0.286	-1.26966562046772
0.01	0.287	-1.2705349762900662
0.01	0.288	-1.27139957207702
0.01	0.289	-1.2722594386146537
0.01	0.29	-1.2731146065585242
0.01	0.291	-1.2739651062929642
0.01	0.292	-1.274810968062096
0.01	0.293	-1.2756522219206043
0.01	0.294	-1.2764888976354813
0.01	0.295	-1.2773210249413702
0.01	0.296	-1.2781486332483831
0.01	0.297	-1.2789717518753305
0.01	0.298	-1.2797904098758834
0.01	0.299	-1.2806046361821934
0.01	0.3	-1.2814144595184462
0.01	0.301	-1.2822199084701682
0.01	0.302	-1.2830210113990344
0.01	0.303	-1.2838177965367985
0.01	0.304	-1.284610291878601
0.01	0.305	-1.2853985253458702
0.01	0.306	-1.286182524631091
0.01	0.307	-1.2869623172752036
0.01	0.308	-1.2877379306565107
0.01	0.309	-1.2885093919658492
0.01	0.31	-1.289276728285642
0.01	0.311	-1.2900399665214517
0.01	0.312	-1.2907991333885678
0.01	0.313	-1.2915542554862967
0.01	0.314	-1.2923053592608469
0.01	0.315	-1.2930524709899216
0.01	0.316	-1.2937956167713718
0.01	0.317	-1.2945348226521638
0.01	0.318	-1.2952701144353662
0.01	0.319	-1.2960015177965951
0.01	0.32	-1.2967290583341897
0.01	0.321	-1.2974527614251452
0.01	0.322	-1.298172652348406
0.01	0.323	-1.2988887562432718
0.01	0.324	-1.2996010980723938
0.01	0.325	-1.300309702708396
0.01	0.326	-1.3010145948788578
0.01	0.327	-1.3017157991464232
0.01	0.328	-1.3024133399747744
0.01	0.329	-1.3031072417005591
0.01	0.33	-1.3037975285191363
0.01	0.331	-1.304484224471028
0.01	0.332	-1.305167353523988
0.01	0.333	-1.3058469394695256
0.01	0.334	-1.306523005997448
0.01	0.335	-1.3071955766835477
0.01	0.336	-1.307864674956428
0.01	0.337	-1.3085303241393627
0.01	0.338	-1.3091925474457455
0.01	0.339	-1.3098513679406087
0.01	0.34	-1.3105068086068838
0.01	0.341	-1.311158892269431
0.01	0.342	-1.311807641654639
0.01	0.343	-1.3124530794196558
0.01	0.344	-1.3130952280352326
0.01	0.345	-1.3137341099158113
0.01	0.346	-1.3143697472906268
0.01	0.347	-1.3150021623912513
0.01	0.348	-1.3156313772410368
0.01	0.349	-1.316257413809357
0.01	0.35	-1.316880293919333
0.01	0.351	-1.317500039333701
0.01	0.352	-1.318116671649939
0.01	0.353	-1.3187302124081768
0.01	0.354	-1.3193406830361447
0.01	0.355	-1.319948104871915
0.01	0.356	-1.3205524990903765
0.01	0.357	-1.3211538868474884
0.01	0.358	-1.3217522891304891
0.01	0.359	-1.3223477268566577
0.01	0.36	-1.3229402208422179
0.01	0.361	-1.3235297918209985
0.01	0.362	-1.3241164604091682
0.01	0.363	-1.3247002471277964
0.01	0.364	-1.3252811724091422
0.01	0.365	-1.325859256580999
0.01	0.366	-1.326434519888724
0.01	0.367	-1.3270069824875739
0.01	0.368	-1.3275766644046458
0.01	0.369	-1.3281435856233428
0.01	0.37	-1.3287077660175985
0.01	0.371	-1.3292692253532976
0.01	0.372	-1.3298279833261806
0.01	0.373	-1.3303840595399496
0.01	0.374	-1.3309374735097583
0.01	0.375	-1.3314882446678364
0.01	0.376	-1.332036392328933
0.01	0.377	-1.3325819357552173
0.01	0.378	-1.333124894123416
0.01	0.379	-1.333665286478723
0.01	0.38	-1.3342031318652758
0.01	0.381	-1.3347384491668
0.01	0.382	-1.3352712572100351
0.01	0.383	-1.3358015747649505
0.01	0.384	-1.336329420446229
0.01	0.385	-1.3368548128591755
0.01	0.386	-1.3373777705049172
0.01	0.387	-1.3378983118256897
0.01	0.388	-1.3384164551282558
0.01	0.389	-1.3389322186790886
0.01	0.39	-1.3394456206426817
0.01	0.391	-1.3399566791621091
0.01	0.392	-1.3404654122273463
0.01	0.393	-1.3409718378018394
0.01	0.394	-1.3414759737420927
0.01	0.395	-1.3419778378538691
0.01	0.396	-1.3424774478421737
0.01	0.397	-1.3429748213467387
0.01	0.398	-1.3434699759583775
0.01	0.399	-1.3439629291526276
0.01	0.4	-1.3444536983423439
0.01	0.401	-1.3449423008850072
0.01	0.402	-1.3454287540361027
0.01	0.403	-1.3459130750132788
0.01	0.404	-1.3463952809296618
0.01	0.405	-1.3468753888542329
0.01	0.406	-1.3473534157426739
0.01	0.407	-1.347829378531975
0.01	0.408	-1.348303294044998
0.01	0.409	-1.3487751790961178
0.01	0.41	-1.3492450503450508
0.01	0.411	-1.3497129244381778
0.01	0.412	-1.3501788179313103
0.01	0.413	-1.3506427473388827
0.01	0.414	-1.3511047290522469
0.01	0.415	-1.351564779467045
0.01	0.416	-1.3520229148689578
0.01	0.417	-1.3524791514738523
0.01	0.418	-1.352933505450059
0.01	0.419	-1.3533859928708543
0.01	0.42	-1.3538366297871056
0.01	0.421	-1.3542854321407845
0.01	0.422	-1.3547324158260463
0.01	0.423	-1.3551775967014554
0.01	0.424	-1.3556209905056704
0.01	0.425	-1.3560626129534596
0.01	0.426	-1.356502479647747
0.01	0.427	-1.3569406062025644
0.01	0.428	-1.3573770081479826
0.01	0.429	-1.357811700878401
0.01	0.43	-1.3582446998200253
0.01	0.431	-1.358676020269517
0.01	0.432	-1.359105677510116
0.01	0.433	-1.3595336867158252
0.01	0.434	-1.35996006304538
0.01	0.435	-1.3603848215720185
0.01	0.436	-1.3608079773095991
0.01	0.437	-1.3612295452161178
0.01	0.438	-1.36164954018493
0.01	0.439	-1.3620679770554063
0.01	0.44	-1.3624848705821044
0.01	0.441	-1.3629002355182587
0.01	0.442	-1.3633140865095215
0.01	0.443	-1.363726438140799
0.01	0.444	-1.3641373049547325
0.01	0.445	-1.3645467014365942
0.01	0.446	-1.364954642032271
0.01	0.447	-1.3653611410725148
0.01	0.448	-1.3657662128705121
0.01	0.449	-1.3661698716955468
0.01	0.45	-1.3665721317345303
0.01	0.451	-1.366973007128064
0.01	0.452	-1.3673725119380544
0.01	0.453	-1.3677706602095305
0.01	0.454	-1.3681674658915277
0.01	0.455	-1.3685629429276864
0.01	0.456	-1.3689571051271778
0.01	0.457	-1.369349966327137
0.01	0.458	-1.3697415402851914
0.01	0.459	-1.3701318406339695
0.01	0.46	-1.3705208810646925
0.01	0.461	-1.3709086751483184
0.01	0.462	-1.3712952363859516
0.01	0.463	-1.371680578270729
0.01	0.464	-1.3720647142302524
0.01	0.465	-1.372447657607019
0.01	0.466	-1.372829421735586
0.01	0.467	-1.3732100198500903
0.01	0.468	-1.3735894651798715
0.01	0.469	-1.3739677708594344
0.01	0.47	-1.3743449500028548
0.01	0.471	-1.3747210156521625
0.01	0.472	-1.375095980797539
0.01	0.473	-1.375469858382416
0.01	0.474	-1.3758426613034047
0.01	0.475	-1.376214402409977
0.01	0.476	-1.376585094455478
0.01	0.477	-1.3769547502060555
0.01	0.478	-1.3773233823434443
0.01	0.479	-1.3776910034912029
0.01	0.48	-1.3780576262516424
0.01	0.481	-1.3784232631327986
0.01	0.482	-1.3787879266273653
0.01	0.483	-1.3791516291827048
0.01	0.484	-1.3795143831586663
0.01	0.485	-1.3798762008932186
0.01	0.486	-1.3802370946714313
0.01	0.487	-1.3805970767256563
0.01	0.488	-1.3809561592378303
0.01	0.489	-1.381314354338713
0.01	0.49	-1.3816716741257884
0.01	0.491	-1.3820281306187756
0.01	0.492	-1.382383735825644
0.01	0.493	-1.382738501654511
0.01	0.494	-1.3830924400042763
0.01	0.495	-1.383445562734572
0.01	0.496	-1.3837978816138137
0.01	0.497	-1.38414940841962
0.01	0.498	-1.38450015481804
0.01	0.499	-1.3848501324758928
0.01	0.5	-1.3851993529681965
0.01	0.501	-1.3855478278942934
0.01	0.502	-1.3858955687359331
0.01	0.503	-1.386242586955576
0.01	0.504	-1.386588893973422
0.01	0.505	-1.3869345011287226
0.01	0.506	-1.3872794197848852
0.01	0.507	-1.3876236611662394
0.01	0.508	-1.3879672365330014
0.01	0.509	-1.3883101570705747
0.01	0.51	-1.388652433897204
0.01	0.511	-1.3889940780993046
0.01	0.512	-1.3893351007177497
0.01	0.513	-1.3896755127757094
0.01	0.514	-1.390015325196881
0.01	0.515	-1.3903545488933802
0.01	0.516	-1.3906931947373427
0.01	0.517	-1.3910312735170023
0.01	0.518	-1.3913687960455028
0.01	0.519	-1.3917057730056923
0.01	0.52	-1.3920422150871088
0.01	0.521	-1.3923781329492246
0.01	0.522	-1.3927135371813888
0.01	0.523	-1.3930484382930528
0.01	0.524	-1.3933828468275749
0.01	0.525	-1.393716773225957
0.01	0.526	-1.3940502279146196
0.01	0.527	-1.394383221235552
0.01	0.528	-1.394715763554466
0.01	0.529	-1.3950478651280478
0.01	0.53	-1.3953795362015913
0.01	0.531	-1.3957107869763097
0.01	0.532	-1.3960416276033116
0.01	0.533	-1.396372068204643
0.01	0.534	-1.3967021188179776
0.01	0.535	-1.3970317894930966
0.01	0.536	-1.3973610902123266
0.01	0.537	-1.397690030891613
0.01	0.538	-1.39801862145624
0.01	0.539	-1.3983468717421788
0.01	0.54	-1.398674791554664
0.01	0.541	-1.3990023906767155
0.01	0.542	-1.3993296788450276
0.01	0.543	-1.399656665708829
0.01	0.544	-1.3999833609639583
0.01	0.545	-1.4003097741646704
0.01	0.546	-1.4006359148877887
0.01	0.547	-1.4009617926646893
0.01	0.548	-1.4012874169562872
0.01	0.549	-1.4016127971970427
0.01	0.55	-1.4019379428157177
0.01	0.551	-1.402262863113182
0.01	0.552	-1.4025875674412176
0.01	0.553	-1.4029120650493807
0.01	0.554	-1.4032363651940745
0.01	0.555	-1.4035604770560741
0.01	0.556	-1.4038844097689551
0.01	0.557	-1.4042081724597129
0.01	0.558	-1.4045317742094736
0.01	0.559	-1.404855224024375
0.01	0.56	-1.4051785309103446
0.01	0.561	-1.4055017037886488
0.01	0.562	-1.405824751608097
0.01	0.563	-1.4061476832325301
0.01	0.564	-1.4064705074591843
0.01	0.565	-1.406793233127551
0.01	0.566	-1.407115868960774
0.01	0.567	-1.4074384236533648
0.01	0.568	-1.4077609059235163
0.01	0.569	-1.4080833243779174
0.01	0.57	-1.4084056876210136
0.01	0.571	-1.408728004204669
0.01	0.572	-1.4090502826432785
0.01	0.573	-1.409372531428265
0.01	0.574	-1.4096947590009563
0.01	0.575	-1.4100169737472532
0.01	0.576	-1.41033918405457
0.01	0.577	-1.4106613982257503
0.01	0.578	-1.4109836245608784
0.01	0.579	-1.4113058713092952
0.01	0.58	-1.411628146687747
0.01	0.581	-1.4119504588689546
0.01	0.582	-1.4122728159744826
0.01	0.583	-1.4125952261298658
0.01	0.584	-1.412917697380345
0.01	0.585	-1.4132402377470283
0.01	0.586	-1.413562855220806
0.01	0.587	-1.4138855577679743
0.01	0.588	-1.414208353278226
0.01	0.589	-1.4145312496404865
0.01	0.59	-1.4148542546859415
0.01	0.591	-1.4151773762316815
0.01	0.592	-1.415500622031324
0.01	0.593	-1.4158239998192426
0.01	0.594	-1.416147517283358
0.01	0.595	-1.4164711820890998
0.01	0.596	-1.4167950018565347
0.01	0.597	-1.4171189841672376
0.01	0.598	-1.4174431365734024
0.01	0.599	-1.4177674665738331
0.01	0.6	-1.4180919816616067
0.01	0.601	-1.4184166892756167
0.01	0.602	-1.4187415968011532
0.01	0.603	-1.419066711648035
0.01	0.604	-1.419392041115451
0.01	0.605	-1.419717592527433
0.01	0.606	-1.4200433731345994
0.01	0.607	-1.4203693901805097
0.01	0.608	-1.4206956508286583
0.01	0.609	-1.4210221622727763
0.01	0.61	-1.421348931632911
0.01	0.611	-1.421675965979287
0.01	0.612	-1.4220032723829068
0.01	0.613	-1.422330857867776
0.01	0.614	-1.42265872939572
0.01	0.615	-1.4229868939633266
0.01	0.616	-1.4233153584575546
0.01	0.617	-1.423644129770082
0.01	0.618	-1.4239732147539605
0.01	0.619	-1.4243026202267683
0.01	0.62	-1.4246323529716478
0.01	0.621	-1.4249624197338975
0.01	0.622	-1.4252928272327356
0.01	0.623	-1.4256235821420535
0.01	0.624	-1.425954691134779
0.01	0.625	-1.4262861608094561
0.01	0.626	-1.4266179977504025
0.01	0.627	-1.426950208513623
0.01	0.628	-1.4272827996045772
0.01	0.629	-1.4276157775242777
0.01	0.63	-1.4279491487023912
0.01	0.631	-1.4282829195854163
0.01	0.632	-1.428617096549091
0.01	0.633	-1.4289516859234035
0.01	0.634	-1.4292866940591957
0.01	0.635	-1.4296221272449774
0.01	0.636	-1.4299579917363416
0.01	0.637	-1.4302942937467258
0.01	0.638	-1.4306310394821866
0.01	0.639	-1.4309682350915038
0.01	0.64	-1.4313058867247166
0.01	0.641	-1.4316440004665167
0.01	0.642	-1.4319825823809005
0.01	0.643	-1.432321638522379
0.01	0.644	-1.4326611748790525
0.01	0.645	-1.4330011974256827
0.01	0.646	-1.4333417121131566
0.01	0.647	-1.4336827248382094
0.01	0.648	-1.4340242415006443
0.01	0.649	-1.4343662679514764
0.01	0.65	-1.4347088099682734
0.01	0.651	-1.4350518733910065
0.01	0.652	-1.4353954639578643
0.01	0.653	-1.4357395873792742
0.01	0.654	-1.4360842493827195
0.01	0.655	-1.4364294556163963
0.01	0.656	-1.4367752117250125
0.01	0.657	-1.4371215233177044
0.01	0.658	-1.4374683959560168
0.01	0.659	-1.4378158352014927
0.01	0.66	-1.438163846579503
0.01	0.661	-1.4385124355632724
0.01	0.662	-1.4388616076141179
0.01	0.663	-1.4392113681629084
0.01	0.664	-1.4395617226230222
0.01	0.665	-1.439912676346507
0.01	0.666	-1.4402642346820569
0.01	0.667	-1.4406164029417818
0.01	0.668	-1.4409691864082312
0.01	0.669	-1.4413225903509042
0.01	0.67	-1.4416766199714721
0.01	0.671	-1.442031280495279
0.01	0.672	-1.4423865770707174
0.01	0.673	-1.4427425148603312
0.01	0.674	-1.4430990989552868
0.01	0.675	-1.4434563344520313
0.01	0.676	-1.4438142263956328
0.01	0.677	-1.44417277984108
0.01	0.678	-1.444531999764656
0.01	0.679	-1.44489189114377
0.01	0.68	-1.445252458939281
0.01	0.681	-1.4456137080515188
0.01	0.682	-1.4459756433732585
0.01	0.683	-1.4463382697812865
0.01	0.684	-1.4467015921020567
0.01	0.685	-1.4470656151389372
0.01	0.686	-1.4474303436775857
0.01	0.687	-1.4477957824851782
0.01	0.688	-1.4481619362758695
0.01	0.689	-1.4485288097483568
0.01	0.69	-1.4488964075868829
0.01	0.691	-1.449264734432191
0.01	0.692	-1.4496337949095
0.01	0.693	-1.4500035936143112
0.01	0.694	-1.4503741351072788
0.01	0.695	-1.4507454239490458
0.01	0.696	-1.4511174646362137
0.01	0.697	-1.4514902616658378
0.01	0.698	-1.4518638195067866
0.01	0.699	-1.452238142601123
0.01	0.7	-1.4526132353481511
0.01	0.701	-1.4529891021401076
0.01	0.702	-1.4533657473375834
0.01	0.703	-1.4537431752905248
0.01	0.704	-1.4541213902887984
0.01	0.705	-1.4545003966516326
0.01	0.706	-1.4548801986055482
0.01	0.707	-1.4552608003968137
0.01	0.708	-1.4556422062350103
0.01	0.709	-1.4560244203126274
0.01	0.71	-1.456407446793071
0.01	0.711	-1.4567912898152016
0.01	0.712	-1.457175953472661
0.01	0.713	-1.4575614418641483
0.01	0.714	-1.4579477590614485
0.01	0.715	-1.4583349090963327
0.01	0.716	-1.458722895971821
0.01	0.717	-1.459111723702153
0.01	0.718	-1.459501396237232
0.01	0.719	-1.4598919175354805
0.01	0.72	-1.4602832914988872
0.01	0.721	-1.460675522032429
0.01	0.722	-1.461068613006157
0.01	0.723	-1.4614625682650855
0.01	0.724	-1.4618573916521949
0.01	0.725	-1.4622530869409616
0.01	0.726	-1.4626496579313557
0.01	0.727	-1.4630471083776966
0.01	0.728	-1.4634454420046714
0.01	0.729	-1.4638446625227812
0.01	0.73	-1.4642447736259374
0.01	0.731	-1.4646457789627216
0.01	0.732	-1.465047682203222
0.01	0.733	-1.4654504869358527
0.01	0.734	-1.465854196780731
0.01	0.735	-1.4662588152925862
0.01	0.736	-1.4666643460390594
0.01	0.737	-1.4670707925383917
0.01	0.738	-1.4674781583069672
0.01	0.739	-1.4678864468254447
0.01	0.74	-1.468295661565207
0.01	0.741	-1.4687058059501756
0.01	0.742	-1.4691168834206998
0.01	0.743	-1.4695288973659733
0.01	0.744	-1.469941851163822
0.01	0.745	-1.470355748178769
0.01	0.746	-1.470770591732949
0.01	0.747	-1.4711863851438838
0.01	0.748	-1.4716031317025595
0.01	0.749	-1.4720208346902066
0.01	0.75	-1.4724394973310415
0.01	0.751	-1.472859122887554
0.01	0.752	-1.4732797145534093
0.01	0.753	-1.4737012755037162
0.01	0.754	-1.4741238089238924
0.01	0.755	-1.4745473179426503
0.01	0.756	-1.4749718057019179
0.01	0.757	-1.475397275304494
0.01	0.758	-1.4758237298330315
0.01	0.759	-1.4762511723556273
0.01	0.76	-1.4766796059104856
0.01	0.761	-1.4771090335271573
0.01	0.762	-1.4775394582149015
0.01	0.763	-1.477970882952588
0.01	0.764	-1.4784033107166201
0.01	0.765	-1.4788367444413368
0.01	0.766	-1.479271187054065
0.01	0.767	-1.4797066414667264
0.01	0.768	-1.4801431105642955
0.01	0.769	-1.4805805972305766
0.01	0.77	-1.4810191042898129
0.01	0.771	-1.48145863459061
0.01	0.772	-1.4818991909289827
0.01	0.773	-1.4823407761089287
0.01	0.774	-1.4827833929062688
0.01	0.775	-1.4832270440724542
0.01	0.776	-1.4836717323296096
0.01	0.777	-1.4841174604147698
0.01	0.778	-1.4845642310282972
0.01	0.779	-1.4850120468309904
0.01	0.78	-1.4854609104978915
0.01	0.781	-1.4859108246684183
0.01	0.782	-1.4863617919741803
0.01	0.783	-1.486813815015053
0.01	0.784	-1.4872668963926374
0.01	0.785	-1.4877210386623532
0.01	0.786	-1.488176244396328
0.01	0.787	-1.4886325161139469
0.01	0.788	-1.4890898563419095
0.01	0.789	-1.4895482675881768
0.01	0.79	-1.4900077523231459
0.01	0.791	-1.4904683130209608
0.01	0.792	-1.4909299521222703
0.01	0.793	-1.4913926720690531
0.01	0.794	-1.491856475270591
0.01	0.795	-1.4923213641302935
0.01	0.796	-1.49278734101036
0.01	0.797	-1.493254408297912
0.01	0.798	-1.4937225683230566
0.01	0.799	-1.494191823414853
0.01	0.8	-1.4946621759052436
0.02	0.101	-0.4982135851366967
0.02	0.102	-0.4995435945605334
0.02	0.103	-0.500863148394938
0.02	0.104	-0.5021723755878975
0.02	0.105	-0.5034714104857343
0.02	0.106	-0.5047603843377033
0.02	0.107	-0.5060394253156383
0.02	0.108	-0.5073086587567726
0.02	0.109	-0.5085682072452918
0.02	0.11	-0.5098181906042852
0.02	0.111	-0.511058726100139
0.02	0.112	-0.51228992852328
0.02	0.113	-0.513511910222017
0.02	0.114	-0.5147247812399764
0.02	0.115	-0.5159286493796549
0.02	0.116	-0.5171236202246231
0.02	0.117	-0.5183097972990678
0.02	0.118	-0.5194872820513429
0.02	0.119	-0.5206561739674447
0.02	0.12	-0.5218165706245896
0.02	0.121	-0.5229685677100826
0.02	0.122	-0.5241122591562407
0.02	0.123	-0.5252477370819183
0.02	0.124	-0.5263750919604395
0.02	0.125	-0.5274944125722897
0.02	0.126	-0.5286057861113095
0.02	0.127	-0.529709298163749
0.02	0.128	-0.5308050328547378
0.02	0.129	-0.5318930727958672
0.02	0.13	-0.5329734991482625
0.02	0.131	-0.5340463916467524
0.02	0.132	-0.5351118287287225
0.02	0.133	-0.5361698873984938
0.02	0.134	-0.5372206434216901
0.02	0.135	-0.5382641712655395
0.02	0.136	-0.5393005441920424
0.02	0.137	-0.5403298341807407
0.02	0.138	-0.5413521121059485
0.02	0.139	-0.5423674476218626
0.02	0.14	-0.5433759093174819
0.02	0.141	-0.5443775646352788
0.02	0.142	-0.5453724799486013
0.02	0.143	-0.5463607205745002
0.02	0.144	-0.5473423508522811
0.02	0.145	-0.5483174340460869
0.02	0.146	-0.5492860324873725
0.02	0.147	-0.5502482075053039
0.02	0.148	-0.5512040195318543
0.02	0.149	-0.5521535280408582
0.02	0.15	-0.5530967916660386
0.02	0.151	-0.5540338680637776
0.02	0.152	-0.5549648141283061
0.02	0.153	-0.555889685860405
0.02	0.154	-0.5568085384406662
0.02	0.155	-0.5577214262597608
0.02	0.156	-0.558628402889104
0.02	0.157	-0.559529521137427
0.02	0.158	-0.560424833083986
0.02	0.159	-0.5613143900331813
0.02	0.16	-0.5621982425594483
0.02	0.161	-0.5630764405472607
0.02	0.162	-0.5639490331750336
0.02	0.163	-0.5648160689271114
0.02	0.164	-0.5656775956413642
0.02	0.165	-0.5665336604809407
0.02	0.166	-0.5673843099766955
0.02	0.167	-0.5682295900124373
0.02	0.168	-0.5690695458775696
0.02	0.169	-0.5699042222264389
0.02	0.17	-0.570733663158266
0.02	0.171	-0.5715579121560999
0.02	0.172	-0.5723770121764336
0.02	0.173	-0.5731910055570824
0.02	0.174	-0.5739999341254343
0.02	0.175	-0.5748038391774991
0.02	0.176	-0.5756027614738559
0.02	0.177	-0.57639674121823
0.02	0.178	-0.5771858181778025
0.02	0.179	-0.577970031580229
0.02	0.18	-0.5787494201506552
0.02	0.181	-0.5795240221932454
0.02	0.182	-0.5802938754742526
0.02	0.183	-0.5810590173537037
0.02	0.184	-0.5818194846958522
0.02	0.185	-0.5825753139627796
0.02	0.186	-0.5833265411338906
0.02	0.187	-0.5840732017958342
0.02	0.188	-0.5848153311164221
0.02	0.189	-0.5855529638540967
0.02	0.19	-0.586286134329961
0.02	0.191	-0.5870148764666527
0.02	0.192	-0.5877392238668563
0.02	0.193	-0.5884592096697753
0.02	0.194	-0.5891748666785732
0.02	0.195	-0.5898862273237113
0.02	0.196	-0.5905933236598311
0.02	0.197	-0.5912961874078121
0.02	0.198	-0.5919948499076785
0.02	0.199	-0.5926893421941598
0.02	0.2	-0.5933796949219702
0.02	0.201	-0.5940659384391365
0.02	0.202	-0.5947481027750186
0.02	0.203	-0.5954262176100916
0.02	0.204	-0.5961003123450052
0.02	0.205	-0.5967704160378288
0.02	0.206	-0.5974365574597968
0.02	0.207	-0.5980987650830447
0.02	0.208	-0.5987570670938367
0.02	0.209	-0.5994114913541805
0.02	0.21	-0.6000620654806867
0.02	0.211	-0.6007088167927221
0.02	0.212	-0.6013517723450841
0.02	0.213	-0.6019909589154824
0.02	0.214	-0.6026264030038472
0.02	0.215	-0.60325813087227
0.02	0.216	-0.6038861684987491
0.02	0.217	-0.6045105416385838
0.02	0.218	-0.6051312757875336
0.02	0.219	-0.605748396172317
0.02	0.22	-0.6063619278206043
0.02	0.221	-0.6069718954863252
0.02	0.222	-0.607578323718751
0.02	0.223	-0.6081812368073499
0.02	0.224	-0.6087806588390704
0.02	0.225	-0.6093766136849599
0.02	0.226	-0.609969124964214
0.02	0.227	-0.6105582161189642
0.02	0.228	-0.6111439103528786
0.02	0.229	-0.6117262306482498
0.02	0.23	-0.6123051998356009
0.02	0.231	-0.6128808404993031
0.02	0.232	-0.6134531750145641
0.02	0.233	-0.6140222256035393
0.02	0.234	-0.6145880142662813
0.02	0.235	-0.6151505628141435
0.02	0.236	-0.6157098928807534
0.02	0.237	-0.6162660258871967
0.02	0.238	-0.6168189831307974
0.02	0.239	-0.6173687856588975
0.02	0.24	-0.6179154543850053
0.02	0.241	-0.6184590100512496
0.02	0.242	-0.6189994732074835
0.02	0.243	-0.6195368642408564
0.02	0.244	-0.6200712033675008
0.02	0.245	-0.6206025106596589
0.02	0.246	-0.6211308060153479
0.02	0.247	-0.6216561091463401
0.02	0.248	-0.6221784396696676
0.02	0.249	-0.6226978169764156
0.02	0.25	-0.623214260346349
0.02	0.251	-0.6237277889131396
0.02	0.252	-0.6242384216196891
0.02	0.253	-0.6247461773164105
0.02	0.254	-0.6252510746821454
0.02	0.255	-0.6257531322415331
0.02	0.256	-0.6262523684097114
0.02	0.257	-0.6267488014248502
0.02	0.258	-0.6272424494051256
0.02	0.259	-0.6277333303588609
0.02	0.26	-0.6282214621277592
0.02	0.261	-0.6287068624239016
0.02	0.262	-0.6291895488510817
0.02	0.263	-0.6296695388633551
0.02	0.264	-0.6301468498117129
0.02	0.265	-0.6306214988932164
0.02	0.266	-0.6310935032059815
0.02	0.267	-0.6315628797164866
0.02	0.268	-0.6320296452809679
0.02	0.269	-0.6324938166163412
0.02	0.27	-0.6329554103445559
0.02	0.271	-0.6334144429592767
0.02	0.272	-0.6338709308500099
0.02	0.273	-0.63432489026635
0.02	0.274	-0.6347763374026599
0.02	0.275	-0.6352252882997268
0.02	0.276	-0.6356717588879932
0.02	0.277	-0.6361157650146343
0.02	0.278	-0.6365573224043287
0.02	0.279	-0.6369964466895095
0.02	0.28	-0.6374331533945294
0.02	0.281	-0.6378674579368776
0.02	0.282	-0.6382993756365373
0.02	0.283	-0.6387289217195989
0.02	0.284	-0.6391561113129516
0.02	0.285	-0.6395809594297867
0.02	0.286	-0.6400034810300235
0.02	0.287	-0.6404236909263458
0.02	0.288	-0.6408416038755753
0.02	0.289	-0.6412572345101003
0.02	0.29	-0.6416705974188619
0.02	0.291	-0.642081707042863
0.02	0.292	-0.6424905777868535
0.02	0.293	-0.6428972239252347
0.02	0.294	-0.6433016596681291
0.02	0.295	-0.6437038991502914
0.02	0.296	-0.6441039563821337
0.02	0.297	-0.6445018453258619
0.02	0.298	-0.6448975798586405
0.02	0.299	-0.6452911737504504
0.02	0.3	-0.6456826407041169
0.02	0.301	-0.6460719943466262
0.02	0.302	-0.6464592482167785
0.02	0.303	-0.6468444157943184
0.02	0.304	-0.6472275104455308
0.02	0.305	-0.6476085454914486
0.02	0.306	-0.6479875341661876
0.02	0.307	-0.6483644896155545
0.02	0.308	-0.6487394249461728
0.02	0.309	-0.649112353134163
0.02	0.31	-0.649483287153184
0.02	0.311	-0.6498522398446833
0.02	0.312	-0.6502192239999202
0.02	0.313	-0.6505842523551708
0.02	0.314	-0.6509473375572128
0.02	0.315	-0.6513084921721328
0.02	0.316	-0.6516677287393078
0.02	0.317	-0.6520250597093089
0.02	0.318	-0.6523804974323388
0.02	0.319	-0.6527340542449414
0.02	0.32	-0.6530857423835058
0.02	0.321	-0.6534355740400418
0.02	0.322	-0.6537835613188518
0.02	0.323	-0.6541297162941437
0.02	0.324	-0.6544740509356659
0.02	0.325	-0.6548165771773066
0.02	0.326	-0.6551573068944281
0.02	0.327	-0.6554962518727533
0.02	0.328	-0.6558334238787318
0.02	0.329	-0.6561688345834937
0.02	0.33	-0.656502495614361
0.02	0.331	-0.6568344185301747
0.02	0.332	-0.6571646148476737
0.02	0.333	-0.6574930959936268
0.02	0.334	-0.6578198733880627
0.02	0.335	-0.6581449583466893
0.02	0.336	-0.6584683621595625
0.02	0.337	-0.6587900960318155
0.02	0.338	-0.6591101711406021
0.02	0.339	-0.6594285986032984
0.02	0.34	-0.6597453894632767
0.02	0.341	-0.6600605547236291
0.02	0.342	-0.6603741053416736
0.02	0.343	-0.6606860522243857
0.02	0.344	-0.660996406191987
0.02	0.345	-0.6613051780436094
0.02	0.346	-0.6616123785435359
0.02	0.347	-0.6619180183501969
0.02	0.348	-0.6622221081262053
0.02	0.349	-0.6625246584385213
0.02	0.35	-0.6628256798388292
0.02	0.351	-0.6631251828188717
0.02	0.352	-0.6634231778054009
0.02	0.353	-0.6637196752153162
0.02	0.354	-0.6640146853655761
0.02	0.355	-0.6643082185612541
0.02	0.356	-0.6646002850544389
0.02	0.357	-0.6648908950509267
0.02	0.358	-0.6651800586964763
0.02	0.359	-0.6654677860946918
0.02	0.36	-0.6657540873222929
0.02	0.361	-0.6660389723780931
0.02	0.362	-0.6663224512559808
0.02	0.363	-0.6666045338687555
0.02	0.364	-0.6668852300947592
0.02	0.365	-0.6671645497860097
0.02	0.366	-0.6674425027283516
0.02	0.367	-0.6677190986652106
0.02	0.368	-0.6679943473176425
0.02	0.369	-0.6682682583486724
0.02	0.37	-0.6685408413757257
0.02	0.371	-0.6688121059793959
0.02	0.372	-0.6690820616973537
0.02	0.373	-0.6693507180341935
0.02	0.374	-0.669618084425318
0.02	0.375	-0.6698841703037633
0.02	0.376	-0.6701489850325706