Variables="alpha" "beta" "omega"
Zone T="1" I=400 J=80
0.01	0.101	-0.7437259988656828
0.01	0.102	-0.7458026105663518
0.01	0.103	-0.7478619718432593
0.01	0.104	-0.7499043301946045
0.01	0.105	-0.7519299273322524
0.01	0.106	-0.7539389992757939
0.01	0.107	-0.7559317766755104
0.01	0.108	-0.7579084848646842
0.01	0.109	-0.7598693440949084
0.01	0.11	-0.7618145695784297
0.01	0.111	-0.7637443717998711
0.01	0.112	-0.7656589565207228
0.01	0.113	-0.7675585250300382
0.01	0.114	-0.7694432741757812
0.01	0.115	-0.7713133965665242
0.01	0.116	-0.7731690806857645
0.01	0.117	-0.7750105110014806
0.01	0.118	-0.7768378680688284
0.01	0.119	-0.7786513286556406
0.01	0.12	-0.7804510658878522
0.01	0.121	-0.7822372492417662
0.01	0.122	-0.7840100448582688
0.01	0.123	-0.7857696153272499
0.01	0.124	-0.7875161201081389
0.01	0.125	-0.7892497154213655
0.01	0.126	-0.7909705543590284
0.01	0.127	-0.7926787870442568
0.01	0.128	-0.7943745606420284
0.01	0.129	-0.796058019496567
0.01	0.13	-0.7977293051290013
0.01	0.131	-0.7993885564039936
0.01	0.132	-0.8010359095382563
0.01	0.133	-0.8026714982114828
0.01	0.134	-0.8042954535647736
0.01	0.135	-0.8059079043401226
0.01	0.136	-0.8075089769658299
0.01	0.137	-0.8090987954994746
0.01	0.138	-0.8106774817826828
0.01	0.139	-0.8122451554763727
0.01	0.14	-0.8138019341167866
0.01	0.141	-0.8153479331392546
0.01	0.142	-0.8168832659928016
0.01	0.143	-0.8184080441332926
0.01	0.144	-0.8199223770970666
0.01	0.145	-0.8214263725361581
0.01	0.146	-0.8229201362993792
0.01	0.147	-0.8244037724004378
0.01	0.148	-0.8258773831591535
0.01	0.149	-0.8273410691810682
0.01	0.15	-0.8287949293819736
0.01	0.151	-0.8302390611245621
0.01	0.152	-0.8316735601045796
0.01	0.153	-0.8330985205412976
0.01	0.154	-0.8345140351002713
0.01	0.155	-0.8359201950388128
0.01	0.156	-0.837317090069007
0.01	0.157	-0.8387048085558374
0.01	0.158	-0.8400834375274506
0.01	0.159	-0.8414530626032839
0.01	0.16	-0.8428137681173412
0.01	0.161	-0.844165637101223
0.01	0.162	-0.8455087513599095
0.01	0.163	-0.8468431914413411
0.01	0.164	-0.8481690367284701
0.01	0.165	-0.8494863653640549
0.01	0.166	-0.8507952544122264
0.01	0.167	-0.8520957797648874
0.01	0.168	-0.853388016245589
0.01	0.169	-0.8546720375736712
0.01	0.17	-0.8559479164219629
0.01	0.171	-0.8572157244476485
0.01	0.172	-0.858475532279496
0.01	0.173	-0.859727409543512
0.01	0.174	-0.8609714249327425
0.01	0.175	-0.8622076461645162
0.01	0.176	-0.8634361400309177
0.01	0.177	-0.8646569724201929
0.01	0.178	-0.8658702083251945
0.01	0.179	-0.8670759118487625
0.01	0.18	-0.8682741462848753
0.01	0.181	-0.8694649740061545
0.01	0.182	-0.8706484566573978
0.01	0.183	-0.8718246549921002
0.01	0.184	-0.8729936290344023
0.01	0.185	-0.8741554379994084
0.01	0.186	-0.875310140348986
0.01	0.187	-0.8764577937921059
0.01	0.188	-0.8775984553454083
0.01	0.189	-0.8787321812366387
0.01	0.19	-0.8798590270582957
0.01	0.191	-0.8809790476754484
0.01	0.192	-0.8820922972914985
0.01	0.193	-0.8831988294053025
0.01	0.194	-0.8842986969391265
0.01	0.195	-0.8853919521115956
0.01	0.196	-0.8864786465406492
0.01	0.197	-0.8875588312154737
0.01	0.198	-0.8886325565023154
0.01	0.199	-0.8896998722215611
0.01	0.2	-0.8907608275765104
0.01	0.201	-0.8918154711947699
0.01	0.202	-0.8928638511624378
0.01	0.203	-0.8939060149862093
0.01	0.204	-0.894942009632625
0.01	0.205	-0.8959718815629961
0.01	0.206	-0.896995676682672
0.01	0.207	-0.8980134403972913
0.01	0.208	-0.8990252176150514
0.01	0.209	-0.9000310527281064
0.01	0.21	-0.9010309896412069
0.01	0.211	-0.9020250717916418
0.01	0.212	-0.9030133421255975
0.01	0.213	-0.9039958431525484
0.01	0.214	-0.9049726169108817
0.01	0.215	-0.9059437049703155
0.01	0.216	-0.9069091484980306
0.01	0.217	-0.907868988216063
0.01	0.218	-0.9088232643947031
0.01	0.219	-0.9097720169146268
0.01	0.22	-0.9107152852184562
0.01	0.221	-0.9116531083678782
0.01	0.222	-0.9125855250355859
0.01	0.223	-0.9135125734399347
0.01	0.224	-0.9144342914860291
0.01	0.225	-0.9153507166601764
0.01	0.226	-0.9162618860899986
0.01	0.227	-0.9171678365082475
0.01	0.228	-0.9180686043258387
0.01	0.229	-0.9189642255605025
0.01	0.23	-0.9198547359211305
0.01	0.231	-0.9207401707253232
0.01	0.232	-0.9216205649785763
0.01	0.233	-0.9224959533429135
0.01	0.234	-0.92336637016377
0.01	0.235	-0.9242318494599905
0.01	0.236	-0.9250924249041395
0.01	0.237	-0.925948129889167
0.01	0.238	-0.9267989974722778
0.01	0.239	-0.9276450604251663
0.01	0.24	-0.9284863512266822
0.01	0.241	-0.9293229020336531
0.01	0.242	-0.930154744724424
0.01	0.243	-0.9309819108882095
0.01	0.244	-0.9318044318550964
0.01	0.245	-0.9326223386182318
0.01	0.246	-0.933435661961917
0.01	0.247	-0.9342444323758584
0.01	0.248	-0.9350486800570275
0.01	0.249	-0.9358484349981309
0.01	0.25	-0.936643726858761
0.01	0.251	-0.9374345851143981
0.01	0.252	-0.938221038953088
0.01	0.253	-0.9390031173071371
0.01	0.254	-0.9397808488951715
0.01	0.255	-0.9405542621787676
0.01	0.256	-0.9413233853608446
0.01	0.257	-0.9420882464660726
0.01	0.258	-0.9428488732312514
0.01	0.259	-0.9436052931911773
0.01	0.26	-0.944357533669794
0.01	0.261	-0.9451056217297374
0.01	0.262	-0.9458495842526594
0.01	0.263	-0.9465894479160001
0.01	0.264	-0.9473252391384182
0.01	0.265	-0.9480569841582327
0.01	0.266	-0.9487847090116036
0.01	0.267	-0.9495084395185618
0.01	0.268	-0.9502282012891731
0.01	0.269	-0.9509440197718104
0.01	0.27	-0.951655920176086
0.01	0.271	-0.9523639275518485
0.01	0.272	-0.9530680667488004
0.01	0.273	-0.9537683624086755
0.01	0.274	-0.9544648390172477
0.01	0.275	-0.9551575208662855
0.01	0.276	-0.9558464320749336
0.01	0.277	-0.9565315965430601
0.01	0.278	-0.9572130380673377
0.01	0.279	-0.9578907801997801
0.01	0.28	-0.958564846363209
0.01	0.281	-0.9592352598125254
0.01	0.282	-0.9599020435973526
0.01	0.283	-0.9605652206406805
0.01	0.284	-0.9612248136965007
0.01	0.285	-0.961880845339081
0.01	0.286	-0.9625333380026151
0.01	0.287	-0.9631823139509723
0.01	0.288	-0.963827795309265
0.01	0.289	-0.9644698040347786
0.01	0.29	-0.9651083619325765
0.01	0.291	-0.9657434906770153
0.01	0.292	-0.9663752117655332
0.01	0.293	-0.9670035465966994
0.01	0.294	-0.9676285163619869
0.01	0.295	-0.9682501421657782
0.01	0.296	-0.9688684449405532
0.01	0.297	-0.9694834455079049
0.01	0.298	-0.9700951645018324
0.01	0.299	-0.9707036224594672
0.01	0.3	-0.9713088398031631
0.01	0.301	-0.9719108367828974
0.01	0.302	-0.972509633524504
0.01	0.303	-0.9731052500342052
0.01	0.304	-0.97369770618603
0.01	0.305	-0.9742870217475099
0.01	0.306	-0.9748732163229945
0.01	0.307	-0.9754563094160573
0.01	0.308	-0.9760363204088932
0.01	0.309	-0.9766132685651401
0.01	0.31	-0.9771871730112407
0.01	0.311	-0.9777580527876574
0.01	0.312	-0.9783259267724139
0.01	0.313	-0.9788908137715158
0.01	0.314	-0.9794527324529386
0.01	0.315	-0.9800117013744298
0.01	0.316	-0.9805677389845772
0.01	0.317	-0.9811208636321025
0.01	0.318	-0.9816710935466769
0.01	0.319	-0.9822184468323154
0.01	0.32	-0.98276294151049
0.01	0.321	-0.9833045955068189
0.01	0.322	-0.9838434266151171
0.01	0.323	-0.9843794525162295
0.01	0.324	-0.9849126908321291
0.01	0.325	-0.9854431590465105
0.01	0.326	-0.9859708745664884
0.01	0.327	-0.9864958546905326
0.01	0.328	-0.9870181165789359
0.01	0.329	-0.9875376773845859
0.01	0.33	-0.9880545540801485
0.01	0.331	-0.9885687635902578
0.01	0.332	-0.9890803227160685
0.01	0.333	-0.9895892481953433
0.01	0.334	-0.9900955566343093
0.01	0.335	-0.9905992645936211
0.01	0.336	-0.9911003885102457
0.01	0.337	-0.9915989447390584
0.01	0.338	-0.992094949552129
0.01	0.339	-0.9925884191319955
0.01	0.34	-0.993079369570069
0.01	0.341	-0.9935678168660871
0.01	0.342	-0.9940537769425547
0.01	0.343	-0.9945372656614571
0.01	0.344	-0.9950182987313216
0.01	0.345	-0.9954968918584173
0.01	0.346	-0.9959730606200832
0.01	0.347	-0.9964468204936048
0.01	0.348	-0.996918186961299
0.01	0.349	-0.9973871753313558
0.01	0.35	-0.997853800878648
0.01	0.351	-0.998318078790326
0.01	0.352	-0.9987800241711892
0.01	0.353	-0.9992396520595861
0.01	0.354	-0.9996969774121038
0.01	0.355	-1.0001520151155825
0.01	0.356	-1.000604779963569
0.01	0.357	-1.0010552866984967
0.01	0.358	-1.00150354996504
0.01	0.359	-1.0019495843708086
0.01	0.36	-1.0023934044071316
0.01	0.361	-1.0028350245322493
0.01	0.362	-1.0032744590941332
0.01	0.363	-1.003711722417804
0.01	0.364	-1.0041468287131217
0.01	0.365	-1.004579792143961
0.01	0.366	-1.005010626818323
0.01	0.367	-1.0054393467382519
0.01	0.368	-1.0058659658606885
0.01	0.369	-1.0062904980915075
0.01	0.37	-1.0067129572466849
0.01	0.371	-1.007133357070152
0.01	0.372	-1.007551711273335
0.01	0.373	-1.0079680334646757
0.01	0.374	-1.0083823372200007
0.01	0.375	-1.0087946360153712
0.01	0.376	-1.0092049433197392
0.01	0.377	-1.0096132724847184
0.01	0.378	-1.0100196368332013
0.01	0.379	-1.0104240495784238
0.01	0.38	-1.010826523959637
0.01	0.381	-1.011227073067832
0.01	0.382	-1.0116257099865733
0.01	0.383	-1.012022447717817
0.01	0.384	-1.0124172991900355
0.01	0.385	-1.0128102773202285
0.01	0.386	-1.0132013949197596
0.01	0.387	-1.0135906647634487
0.01	0.388	-1.013978099576382
0.01	0.389	-1.014363711999777
0.01	0.39	-1.014747514647851
0.01	0.391	-1.015129520042175
0.01	0.392	-1.0155097406990963
0.01	0.393	-1.0158881890410685
0.01	0.394	-1.0162648774281422
0.01	0.395	-1.0166398182086323
0.01	0.396	-1.0170130236375465
0.01	0.397	-1.0173845059234108
0.01	0.398	-1.017754277237826
0.01	0.399	-1.018122349695568
0.01	0.4	-1.0184887353283314
0.01	0.401	-1.0188534461523568
0.01	0.402	-1.0192164941204032
0.01	0.403	-1.0195778911343147
0.01	0.404	-1.0199376490207532
0.01	0.405	-1.0202957796004573
0.01	0.406	-1.020652294602961
0.01	0.407	-1.021007205737918
0.01	0.408	-1.0213605246344828
0.01	0.409	-1.0217122628929032
0.01	0.41	-1.0220624320681286
0.01	0.411	-1.0224110436654539
0.01	0.412	-1.0227581090897462
0.01	0.413	-1.0231036397810245
0.01	0.414	-1.023447647085827
0.01	0.415	-1.0237901423057418
0.01	0.416	-1.0241311366884553
0.01	0.417	-1.0244706414600138
0.01	0.418	-1.024808667775795
0.01	0.419	-1.0251452267366468
0.01	0.42	-1.0254803294408896
0.01	0.421	-1.0258139868821698
0.01	0.422	-1.0261462100639807
0.01	0.423	-1.0264770099106597
0.01	0.424	-1.026806397308298
0.01	0.425	-1.027134383087978
0.01	0.426	-1.0274609780658959
0.01	0.427	-1.0277861929949426
0.01	0.428	-1.0281100385705821
0.01	0.429	-1.0284325254590476
0.01	0.43	-1.0287536643024138
0.01	0.431	-1.0290734656616378
0.01	0.432	-1.0293919400730727
0.01	0.433	-1.0297090980398886
0.01	0.434	-1.030024949993308
0.01	0.435	-1.0303395063570802
0.01	0.436	-1.0306527774900005
0.01	0.437	-1.0309647737183831
0.01	0.438	-1.0312755053192373
0.01	0.439	-1.0315849825374612
0.01	0.44	-1.0318932155626297
0.01	0.441	-1.0322002145662346
0.01	0.442	-1.0325059896516071
0.01	0.443	-1.0328105509175496
0.01	0.444	-1.0331139083716632
0.01	0.445	-1.0334160720238847
0.01	0.446	-1.0337170518347294
0.01	0.447	-1.03401685770439
0.01	0.448	-1.0343154995257324
0.01	0.449	-1.034612987124507
0.01	0.45	-1.0349093303163448
0.01	0.451	-1.0352045388460933
0.01	0.452	-1.035498622432026
0.01	0.453	-1.035791590759696
0.01	0.454	-1.0360834534649468
0.01	0.455	-1.0363742201705606
0.01	0.456	-1.0366639004372749
0.01	0.457	-1.03695250377466
0.01	0.458	-1.0372400397078887
0.01	0.459	-1.037526517654503
0.01	0.46	-1.0378119470700446
0.01	0.461	-1.038096337299524
0.01	0.462	-1.038379697710745
0.01	0.463	-1.0386620376021873
0.01	0.464	-1.0389433662346057
0.01	0.465	-1.039223692853942
0.01	0.466	-1.039503026645372
0.01	0.467	-1.0397813767806638
0.01	0.468	-1.0400587523757552
0.01	0.469	-1.040335162517898
0.01	0.47	-1.0406106162774855
0.01	0.471	-1.0408851226534543
0.01	0.472	-1.0411586906304755
0.01	0.473	-1.0414313291761246
0.01	0.474	-1.0417030471782167
0.01	0.475	-1.041973853522143
0.01	0.476	-1.0422437570483076
0.01	0.477	-1.0425127665897593
0.01	0.478	-1.0427808908806513
0.01	0.479	-1.0430481386853407
0.01	0.48	-1.0433145187084578
0.01	0.481	-1.0435800396166548
0.01	0.482	-1.0438447100489714
0.01	0.483	-1.0441085385989806
0.01	0.484	-1.0443715338570578
0.01	0.485	-1.0446337043491205
0.01	0.486	-1.0448950585867396
0.01	0.487	-1.0451556050260011
0.01	0.488	-1.0454153521143088
0.01	0.489	-1.0456743082582467
0.01	0.49	-1.0459324818195077
0.01	0.491	-1.0461898811543964
0.01	0.492	-1.0464465145569841
0.01	0.493	-1.0467023903030184
0.01	0.494	-1.046957516642931
0.01	0.495	-1.0472119017700592
0.01	0.496	-1.0474655538819764
0.01	0.497	-1.0477184811141165
0.01	0.498	-1.0479706915850837
0.01	0.499	-1.0482221933749134
0.01	0.5	-1.0484729945275741
0.02	0.101	-0.38013832389848556
0.02	0.102	-0.3811193107629422
0.02	0.103	-0.38209252760201984
0.02	0.104	-0.3830580841841809
0.02	0.105	-0.3840160819289267
0.02	0.106	-0.38496662003459187
0.02	0.107	-0.3859097955635616
0.02	0.108	-0.3868457035046881
0.02	0.109	-0.38777443678814955
0.02	0.11	-0.3886960864225493
0.02	0.111	-0.3896107414699378
0.02	0.112	-0.3905184891715238
0.02	0.113	-0.39141941493989574
0.02	0.114	-0.3923136024322996
0.02	0.115	-0.39320113362267295
0.02	0.116	-0.39408208881961027
0.02	0.117	-0.3949565467198522
0.02	0.118	-0.3958245844543315
0.02	0.119	-0.3966862776182522
0.02	0.12	-0.3975417003701876
0.02	0.121	-0.39839092535761045
0.02	0.122	-0.39923402389883933
0.02	0.123	-0.4000710658790318
0.02	0.124	-0.40090211989714153
0.02	0.125	-0.40172725326149006
0.02	0.126	-0.40254653199768115
0.02	0.127	-0.40336002090700074
0.02	0.128	-0.40416778361978845
0.02	0.129	-0.40496988258609334
0.02	0.13	-0.4057663790999744
0.02	0.131	-0.406557333395041
0.02	0.132	-0.40734280460758043
0.02	0.133	-0.40812285081395366
0.02	0.134	-0.40889752909728466
0.02	0.135	-0.40966689549731566
0.02	0.136	-0.410431005134692
0.02	0.137	-0.411189912142589
0.02	0.138	-0.4119436697350073
0.02	0.139	-0.41269233026334595
0.02	0.14	-0.4134359451217659
0.02	0.141	-0.41417456492457255
0.02	0.142	-0.41490823939448646
0.02	0.143	-0.4156370174532508
0.02	0.144	-0.41636094723530725
0.02	0.145	-0.4170800760649149
0.02	0.146	-0.4177944505465432
0.02	0.147	-0.41850411649361985
0.02	0.148	-0.4192091190209093
0.02	0.149	-0.41990950252477294
0.02	0.15	-0.4206053107142245
0.02	0.151	-0.42129658660875907
0.02	0.152	-0.4219833725756256
0.02	0.153	-0.4226657103221846
0.02	0.154	-0.4233436409345512
0.02	0.155	-0.42401720485870764
0.02	0.156	-0.4246864419641123
0.02	0.157	-0.42535139149962886
0.02	0.158	-0.4260120921544436
0.02	0.159	-0.42666858203938807
0.02	0.16	-0.4273208987087543
0.02	0.161	-0.42796907918023214
0.02	0.162	-0.4286131599357683
0.02	0.163	-0.429253176937731
0.02	0.164	-0.4298891656453289
0.02	0.165	-0.4305211609984728
0.02	0.166	-0.4311491974749891
0.02	0.167	-0.43177330906815514
0.02	0.168	-0.43239352927564106
0.02	0.169	-0.43300989117191785
0.02	0.17	-0.43362242737477286
0.02	0.171	-0.4342311700262381
0.02	0.172	-0.43483615089060224
0.02	0.173	-0.43543740127301267
0.02	0.174	-0.43603495207546056
0.02	0.175	-0.436628833794529
0.02	0.176	-0.43721907650976594
0.02	0.177	-0.4378057099446051
0.02	0.178	-0.43838876341759087
0.02	0.179	-0.43896826587058274
0.02	0.18	-0.43954424587585067
0.02	0.181	-0.4401167316687538
0.02	0.182	-0.44068575109674735
0.02	0.183	-0.44125133168086667
0.02	0.184	-0.44181350059109314
0.02	0.185	-0.44237228467414386
0.02	0.186	-0.4429277104280755
0.02	0.187	-0.4434798040487636
0.02	0.188	-0.44402859141633866
0.02	0.189	-0.4445740980784864
0.02	0.19	-0.44511634930791305
0.02	0.191	-0.44565537004795125
0.02	0.192	-0.4461911849696895
0.02	0.193	-0.44672381845317166
0.02	0.194	-0.44725329458263174
0.02	0.195	-0.44777963717970043
0.02	0.196	-0.4483028697773753
0.02	0.197	-0.4488230156578868
0.02	0.198	-0.4493400978254656
0.02	0.199	-0.4498541390284469
0.02	0.2	-0.45036516176621655
0.02	0.201	-0.4508731882868352
0.02	0.202	-0.4513782405898362
0.02	0.203	-0.4518803404293529
0.02	0.204	-0.4523795093274399
0.02	0.205	-0.45287576856798345
0.02	0.206	-0.45336913922354816
0.02	0.207	-0.45385964211357227
0.02	0.208	-0.45434729786176853
0.02	0.209	-0.4548321268519462
0.02	0.21	-0.4553141492710491
0.02	0.211	-0.4557933850812829
0.02	0.212	-0.456269854051713
0.02	0.213	-0.4567435757321411
0.02	0.214	-0.45721456948745315
0.02	0.215	-0.4576828544757511
0.02	0.216	-0.4581484496612132
0.02	0.217	-0.458611373827922
0.02	0.218	-0.45907164556258157
0.02	0.219	-0.4595292832571904
0.02	0.22	-0.4599843051453084
0.02	0.221	-0.4604367292619455
0.02	0.222	-0.4608865734799381
0.02	0.223	-0.46133385549058403
0.02	0.224	-0.4617785928175793
0.02	0.225	-0.4622208028115663
0.02	0.226	-0.46266050268063486
0.02	0.227	-0.46309770943089307
0.02	0.228	-0.4635324399382543
0.02	0.229	-0.4639647109105285
0.02	0.23	-0.46439453891234234
0.02	0.231	-0.46482194033348556
0.02	0.232	-0.46524693142991436
0.02	0.233	-0.46566952829860925
0.02	0.234	-0.4660897469084781
0.02	0.235	-0.4665076030623675
0.02	0.236	-0.46692311243118584
0.02	0.237	-0.4673362905573877
0.02	0.238	-0.46774715282583557
0.02	0.239	-0.4681557144986769
0.02	0.24	-0.4685619907000041
0.02	0.241	-0.4689659964197689
0.02	0.242	-0.4693677465267807
0.02	0.243	-0.4697672557614959
0.02	0.244	-0.47016453872330094
0.02	0.245	-0.47055960990652307
0.02	0.246	-0.4709524836734006
0.02	0.247	-0.4713431742642285
0.02	0.248	-0.47173169581134855
0.02	0.249	-0.47211806231224185
0.02	0.25	-0.47250228766514846
0.02	0.251	-0.47288438565122753
0.02	0.252	-0.47326436992972754
0.02	0.253	-0.47364225405658056
0.02	0.254	-0.47401805147637865
0.02	0.255	-0.4743917755355762
0.02	0.256	-0.47476343945400873
0.02	0.257	-0.47513305637144987
0.02	0.258	-0.47550063930216857
0.02	0.259	-0.47586620116999495
0.02	0.26	-0.4762297547986041
0.02	0.261	-0.4765913129098169
0.02	0.262	-0.47695088812614833
0.02	0.263	-0.47730849297784667
0.02	0.264	-0.4776641398887384
0.02	0.265	-0.47801784121382884
0.02	0.266	-0.47836960918289473
0.02	0.267	-0.4787194559617256
0.02	0.268	-0.4790673936073708
0.02	0.269	-0.4794134340916061
0.02	0.27	-0.47975758930870477
0.02	0.271	-0.48009987106026714
0.02	0.272	-0.48044029104710856
0.02	0.273	-0.4807788609052282
0.02	0.274	-0.4811155921905287
0.02	0.275	-0.48145049634842024
0.02	0.276	-0.48178358477580596
0.02	0.277	-0.4821148687581355
0.02	0.278	-0.4824443595356716
0.02	0.279	-0.4827720682362272
0.02	0.28	-0.48309800593618785
0.02	0.281	-0.48342218361831374
0.02	0.282	-0.48374461220482756
0.02	0.283	-0.48406530251496543
0.02	0.284	-0.4843842653412571
0.02	0.285	-0.48470151135377476
0.02	0.286	-0.4850170511812025
0.02	0.287	-0.48533089538590707
0.02	0.288	-0.4856430544293687
0.02	0.289	-0.4859535387180138
0.02	0.29	-0.4862623586171691
0.02	0.291	-0.48656952437764
0.02	0.292	-0.4868750462127865
0.02	0.293	-0.48717893427005265
0.02	0.294	-0.4874811986156702
0.02	0.295	-0.48778184926341667
0.02	0.296	-0.48808089616724276
0.02	0.297	-0.4883783491864842
0.02	0.298	-0.4886742181671611
0.02	0.299	-0.4889685128658215
0.02	0.3	-0.4892612429698866
0.02	0.301	-0.4895524181195842
0.02	0.302	-0.4898420479057284
0.02	0.303	-0.49013014183298215
0.02	0.304	-0.49041670936986387
0.02	0.305	-0.4907017599180791
0.02	0.306	-0.4909853028211268
0.02	0.307	-0.4912673473806491
0.02	0.308	-0.49154790281495314
0.02	0.309	-0.49182697831620736
0.02	0.31	-0.4921045830030417
0.02	0.311	-0.4923807259481624
0.02	0.312	-0.4926554161743514
0.02	0.313	-0.4929286626386175
0.02	0.314	-0.49320047425075175
0.02	0.315	-0.4934708598818198
0.02	0.316	-0.4937398283319758
0.02	0.317	-0.49400738837222835
0.02	0.318	-0.4942735486986554
0.02	0.319	-0.49453831798046505
0.02	0.32	-0.49480170481842844
0.02	0.321	-0.495063717791064
0.02	0.322	-0.49532436539683966
0.02	0.323	-0.49558365610808924
0.02	0.324	-0.4958415983413678
0.02	0.325	-0.49609820048084197
0.02	0.326	-0.4963534708425967
0.02	0.327	-0.4966074177102378
0.02	0.328	-0.49686004931696615
0.02	0.329	-0.4971113738617607
0.02	0.33	-0.4973613994938258
0.02	0.331	-0.49761013430388695
0.02	0.332	-0.4978575863643622
0.02	0.333	-0.4981037636845604
0.02	0.334	-0.49834867424730067
0.02	0.335	-0.49859232597117026
0.02	0.336	-0.49883472676497304
0.02	0.337	-0.4990758844693647
0.02	0.338	-0.4993158068888456
0.02	0.339	-0.4995545017958888
0.02	0.34	-0.4997919769169447
0.02	0.341	-0.5000282399471343
0.02	0.342	-0.5002632985192892
0.02	0.343	-0.5004971602670889
0.02	0.344	-0.5007298327302359
0.02	0.345	-0.5009613234693789
0.02	0.346	-0.501191639969162
0.02	0.347	-0.5014207896802869
0.02	0.348	-0.5016487800316781
0.02	0.349	-0.5018756184036381
0.02	0.35	-0.502101312139299
0.02	0.351	-0.5023258685518884
0.02	0.352	-0.5025492949031225
0.02	0.353	-0.5027715984591905
0.02	0.354	-0.5029927863990387
0.02	0.355	-0.5032128658949642
0.02	0.356	-0.5034318440814489
0.02	0.357	-0.5036497280603806
0.02	0.358	-0.5038665248963906
0.02	0.359	-0.5040822416173427
0.02	0.36	-0.5042968852218058
0.02	0.361	-0.5045104626682462
0.02	0.362	-0.5047229808979474
0.02	0.363	-0.5049344468049023
0.02	0.364	-0.5051448672492651
0.02	0.365	-0.5053542490708318
0.02	0.366	-0.5055625990710579
0.02	0.367	-0.5057699240213493
0.02	0.368	-0.5059762306489047
0.02	0.369	-0.5061815256784207
0.02	0.37	-0.5063858157762086
0.02	0.371	-0.5065891075857042
0.02	0.372	-0.506791407733541
0.02	0.373	-0.5069927227947998
0.02	0.374	-0.5071930593347096
0.02	0.375	-0.5073924238650382
0.02	0.376	-0.5075908228892907
0.02	0.377	-0.5077882628832913
0.02	0.378	-0.5079847502749401
0.02	0.379	-0.5081802914751433
0.02	0.38	-0.5083748928669197
0.02	0.381	-0.5085685607973096
0.02	0.382	-0.508761301602067
0.02	0.383	-0.508953121565021
0.02	0.384	-0.5091440269625315
0.02	0.385	-0.5093340240295507
0.02	0.386	-0.5095231189864567
0.02	0.387	-0.5097113180147541
0.02	0.388	-0.5098986272773754
0.02	0.389	-0.5100850529072849
0.02	0.39	-0.5102706010077467
0.02	0.391	-0.5104552776664208
0.02	0.392	-0.5106390889281833
0.02	0.393	-0.510822040818772
0.02	0.394	-0.5110041393538772
0.02	0.395	-0.5111853905006507
0.02	0.396	-0.5113658002130178
0.02	0.397	-0.5115453744087397
0.02	0.398	-0.5117241190028725
0.02	0.399	-0.5119020398565762
0.02	0.4	-0.5120791428331437
0.02	0.401	-0.5122554337583228
0.02	0.402	-0.5124309184186743
0.02	0.403	-0.5126056026033615
0.02	0.404	-0.51277949206667
0.02	0.405	-0.5129525925427156
0.02	0.406	-0.5131249097205812
0.02	0.407	-0.5132964492948382
0.02	0.408	-0.5134672169242837
0.02	0.409	-0.5136372182409604
0.02	0.41	-0.5138064588588382
0.02	0.411	-0.5139749443649868
0.02	0.412	-0.5141426803272778
0.02	0.413	-0.514309672281463
0.02	0.414	-0.5144759257570989
0.02	0.415	-0.5146414462483655
0.02	0.416	-0.5148062392321313
0.02	0.417	-0.5149703101656405
0.02	0.418	-0.5151336644694116
0.02	0.419	-0.515296307562111
0.02	0.42	-0.5154582448302198
0.02	0.421	-0.5156194816343641
0.02	0.422	-0.515780023319978
0.02	0.423	-0.5159398752184159
0.02	0.424	-0.5160990426187027
0.02	0.425	-0.5162575308084564
0.02	0.426	-0.5164153450468975
0.02	0.427	-0.5165724905633587
0.02	0.428	-0.5167289725950861
0.02	0.429	-0.5168847963157965
0.02	0.43	-0.5170399669073159
0.02	0.431	-0.5171944895338411
0.02	0.432	-0.5173483693240511
0.02	0.433	-0.5175016113922796
0.02	0.434	-0.5176542208291499
0.02	0.435	-0.5178062027205372
0.02	0.436	-0.5179575621093438
0.02	0.437	-0.518108304037534
0.02	0.438	-0.5182584335116098
0.02	0.439	-0.5184079555335491
0.02	0.44	-0.5185568750699406
0.02	0.441	-0.5187051970925571
0.02	0.442	-0.5188529265217842
0.02	0.443	-0.519000068283977
0.02	0.444	-0.5191466272745414
0.02	0.445	-0.5192926083750807
0.02	0.446	-0.5194380164422832
0.02	0.447	-0.5195828563129367
0.02	0.448	-0.5197271328123048
0.02	0.449	-0.5198708507537592
0.02	0.45	-0.5200140149141796
0.02	0.451	-0.5201566300567005
0.02	0.452	-0.5202987009289223
0.02	0.453	-0.5204402322735869
0.02	0.454	-0.5205812287837887
0.02	0.455	-0.5207216951667936
0.02	0.456	-0.5208616360879808
0.02	0.457	-0.521001056212714
0.02	0.458	-0.521139960174295
0.02	0.459	-0.5212783525961651
0.02	0.46	-0.5214162380788646
0.02	0.461	-0.5215536212118937
0.02	0.462	-0.5216905065656197
0.02	0.463	-0.5218268986804085
0.02	0.464	-0.5219628021018498
0.02	0.465	-0.5220982213360679
0.02	0.466	-0.5222331608868974
0.02	0.467	-0.522367625225904
0.02	0.468	-0.5225016188341959
0.02	0.469	-0.5226351461392686
0.02	0.47	-0.5227682115875056
0.02	0.471	-0.52290081958553
0.02	0.472	-0.5230329745253367
0.02	0.473	-0.52316468079154
0.02	0.474	-0.5232959427429353
0.02	0.475	-0.5234267647290574
0.02	0.476	-0.5235571510749867
0.02	0.477	-0.5236871060965385
0.02	0.478	-0.523816634083625
0.02	0.479	-0.5239457393236306
0.02	0.48	-0.5240744260821131
0.02	0.481	-0.5242026985936018
0.02	0.482	-0.5243305610983136
0.02	0.483	-0.5244580178092481
0.02	0.484	-0.5245850729268073
0.02	0.485	-0.5247117306316131
0.02	0.486	-0.5248379950893359
0.02	0.487	-0.5249638704518704
0.02	0.488	-0.525089360853199
0.02	0.489	-0.5252144704161744
0.02	0.49	-0.525339203233975
0.02	0.491	-0.5254635634060358
0.02	0.492	-0.5255875549989346
0.02	0.493	-0.5257111820690019
0.02	0.494	-0.5258344486574148
0.02	0.495	-0.5259573587976903
0.02	0.496	-0.5260799164835958
0.02	0.497	-0.526202125723619
0.02	0.498	-0.5263239904916249
0.02	0.499	-0.5264455147525744
0.02	0.5	-0.5265667024602436
0.03	0.101	-0.2586177884469027
0.03	0.102	-0.2592375247918428
0.03	0.103	-0.2598526106905499
0.03	0.104	-0.2604630634519839
0.03	0.105	-0.2610689403990616
0.03	0.106	-0.2616702976891636
0.03	0.107	-0.26226719031953266
0.03	0.108	-0.26285967218706624
0.03	0.109	-0.26344779610662233
0.03	0.11	-0.2640316138360638
0.03	0.111	-0.2646111761157039
0.03	0.112	-0.2651865326822497
0.03	0.113	-0.26575773230754335
0.03	0.114	-0.26632482281609027
0.03	0.115	-0.2668878511172223
0.03	0.116	-0.26744686322611805
0.03	0.117	-0.268001904289062
0.03	0.118	-0.268553018597697
0.03	0.119	-0.2691002496180691
0.03	0.12	-0.2696436400267775
0.03	0.121	-0.27018323170351144
0.03	0.122	-0.2707190657566083
0.03	0.123	-0.2712511825688107
0.03	0.124	-0.27177962178598203
0.03	0.125	-0.27230442236054553
0.03	0.126	-0.27282562253770914
0.03	0.127	-0.27334325990696823
0.03	0.128	-0.2738573713909839
0.03	0.129	-0.2743679932837637
0.03	0.13	-0.2748751612410788
0.03	0.131	-0.2753789103376777
0.03	0.132	-0.2758792750305082
0.03	0.133	-0.27637628921048796
0.03	0.134	-0.2768699861946008
0.03	0.135	-0.2773603987643656
0.03	0.136	-0.27784755915104753
0.03	0.137	-0.27833149905770227
0.03	0.138	-0.278812249684223
0.03	0.139	-0.2792898417267658
0.03	0.14	-0.27976430538823793
0.03	0.141	-0.28023567039598585
0.03	0.142	-0.2807039660137028
0.03	0.143	-0.28116922104313175
0.03	0.144	-0.2816314638384442
0.03	0.145	-0.2820907223330877
0.03	0.146	-0.2825470240145645
0.03	0.147	-0.28300039596597115
0.03	0.148	-0.28345086485462406
0.03	0.149	-0.28389845695432847
0.03	0.15	-0.28434319815464426
0.03	0.151	-0.28478511395325207
0.03	0.152	-0.28522422947669224
0.03	0.153	-0.2856605694958231
0.03	0.154	-0.2860941584141051
0.03	0.155	-0.2865250202840971
0.03	0.156	-0.28695317882309745
0.03	0.157	-0.287378657416683
0.03	0.158	-0.287801479112697
0.03	0.159	-0.28822166664244725
0.03	0.16	-0.2886392424191041
0.03	0.161	-0.2890542285525655
0.03	0.162	-0.2894666468489213
0.03	0.163	-0.2898765188204922
0.03	0.164	-0.29028386567841863
0.03	0.165	-0.2906887083681148
0.03	0.166	-0.2910910675468098
0.03	0.167	-0.291490963597204
0.03	0.168	-0.29188841664114773
0.03	0.169	-0.29228344653107335
0.03	0.17	-0.2926760728652096
0.03	0.171	-0.2930663149913364
0.03	0.172	-0.2934541920178622
0.03	0.173	-0.29383972278903936
0.03	0.174	-0.2942229259355824
0.03	0.175	-0.2946038198387703
0.03	0.176	-0.2949824226612102
0.03	0.177	-0.2953587523269628
0.03	0.178	-0.2957328265602054
0.03	0.179	-0.2961046628560524
0.03	0.18	-0.2964742784986514
0.03	0.181	-0.29684169056513693
0.03	0.182	-0.2972069159274204
0.03	0.183	-0.29756997125935425
0.03	0.184	-0.29793087303865984
0.03	0.185	-0.2982896375466781
0.03	0.186	-0.2986462808686066
0.03	0.187	-0.299000818918339
0.03	0.188	-0.2993532674164837
0.03	0.189	-0.29970364190887033
0.03	0.19	-0.30005195775805454
0.03	0.191	-0.30039823015610684
0.03	0.192	-0.300742474131124
0.03	0.193	-0.30108470452615704
0.03	0.194	-0.30142493604657344
0.03	0.195	-0.30176318320893797
0.03	0.196	-0.3020994603900544
0.03	0.197	-0.30243378179818226
0.03	0.198	-0.3027661614963864
0.03	0.199	-0.3030966133917252
0.03	0.2	-0.30342515124523656
0.03	0.201	-0.3037517886685167
0.03	0.202	-0.3040765391367954
0.03	0.203	-0.3043994159738912
0.03	0.204	-0.3047204323789649
0.03	0.205	-0.30503960139690683
0.03	0.206	-0.30535693596158936
0.03	0.207	-0.3056724488458375
0.03	0.208	-0.30598615272388985
0.03	0.209	-0.3062980601155285
0.03	0.21	-0.30660818343380486
0.03	0.211	-0.30691653495603805
0.03	0.212	-0.3072231268380438
0.03	0.213	-0.3075279711266685
0.03	0.214	-0.30783107974622387
0.03	0.215	-0.30813246449941456
0.03	0.216	-0.30843213708522166
0.03	0.217	-0.30873010907587545
0.03	0.218	-0.3090263919427545
0.03	0.219	-0.3093209970504734
0.03	0.22	-0.30961393565353645
0.03	0.221	-0.3099052188924392
0.03	0.222	-0.31019485782272477
0.03	0.223	-0.3104828633780013
0.03	0.224	-0.3107692464128012
0.03	0.225	-0.311054017657262
0.03	0.226	-0.31133718775706976
0.03	0.227	-0.3116187672685615
0.03	0.228	-0.3118987666391733
0.03	0.229	-0.31217719623440565
0.03	0.23	-0.31245406631584893
0.03	0.231	-0.31272938706850695
0.03	0.232	-0.31300316858065125
0.03	0.233	-0.3132754208541708
0.03	0.234	-0.31354615380036094
0.03	0.235	-0.3138153772460163
0.03	0.236	-0.3140831009429645
0.03	0.237	-0.31434933455080194
0.03	0.238	-0.31461408764790616
0.03	0.239	-0.314877369734155
0.03	0.24	-0.31513919023079245
0.03	0.241	-0.3153995584800954
0.03	0.242	-0.3156584837468597
0.03	0.243	-0.31591597522073156
0.03	0.244	-0.31617204201226384
0.03	0.245	-0.3164266931664414
0.03	0.246	-0.31667993764681074
0.03	0.247	-0.3169317843482925
0.03	0.248	-0.3171822420945159
0.03	0.249	-0.31743131964422033
0.03	0.25	-0.3176790256701027
0.03	0.251	-0.31792536880838423
0.03	0.252	-0.318170357597359
0.03	0.253	-0.31841400051961727
0.03	0.254	-0.31865630600104533
0.03	0.255	-0.3188972823862972
0.03	0.256	-0.31913693797818066
0.03	0.257	-0.3193752809871154
0.03	0.258	-0.31961231959422753
0.03	0.259	-0.31984806190152526
0.03	0.26	-0.32008251594229714
0.03	0.261	-0.32031568971623176
0.03	0.262	-0.32054759114464443
0.03	0.263	-0.3207782280951455
0.03	0.264	-0.3210076083786276
0.03	0.265	-0.3212357397420392
0.03	0.266	-0.3214626298965404
0.03	0.267	-0.3216882864810812