Variables="alpha" "beta" "omega"
Zone T="1" I=100 J=80
0.01	0.003	-1.0
0.01	0.006	-1.0
0.01	0.009	-1.0
0.01	0.012	-1.0
0.01	0.015	-1.0
0.01	0.018	-1.0
0.01	0.021	-1.0
0.01	0.024	-1.0
0.01	0.027	-1.0
0.01	0.03	-1.0
0.01	0.033	-1.0
0.01	0.036	-1.0
0.01	0.039	-1.0
0.01	0.042	-1.0
0.01	0.045	-1.0
0.01	0.048	-1.0
0.01	0.051	-1.0
0.01	0.054	-1.0
0.01	0.057	-1.0
0.01	0.06	-1.0
0.01	0.063	-1.0
0.01	0.066	-1.0
0.01	0.069	-1.0
0.01	0.072	-1.0
0.01	0.075	-1.0
0.01	0.078	-1.0
0.01	0.081	-1.0
0.01	0.084	-1.0
0.01	0.087	-1.0
0.01	0.09	-1.0
0.01	0.093	-1.0
0.01	0.096	-1.0
0.01	0.099	-1.0
0.01	0.102	-1.0
0.01	0.105	-1.0
0.01	0.108	-1.0
0.01	0.111	-1.0
0.01	0.114	-1.0
0.01	0.117	-1.0
0.01	0.12	-1.0
0.01	0.123	-1.0
0.01	0.126	-1.0
0.01	0.129	-1.0
0.01	0.132	-1.0
0.01	0.135	-1.0
0.01	0.138	-1.0
0.01	0.141	-1.0
0.01	0.144	-1.0
0.01	0.147	-1.0
0.01	0.15	-1.0
0.01	0.153	-1.0
0.01	0.156	-1.0
0.01	0.159	-1.0
0.01	0.162	-1.0
0.01	0.165	-1.0
0.01	0.168	-1.0
0.01	0.171	-1.0
0.01	0.174	-1.0
0.01	0.177	-1.0
0.01	0.18	-1.0
0.01	0.183	-1.0
0.01	0.186	-1.0
0.01	0.189	-1.0
0.01	0.192	-1.0
0.01	0.195	-1.0
0.01	0.198	-1.0
0.01	0.201	-1.0
0.01	0.204	-1.0
0.01	0.207	-1.0
0.01	0.21	-1.0
0.01	0.213	-1.0
0.01	0.216	-1.0
0.01	0.219	-1.0
0.01	0.222	-1.0
0.01	0.225	-1.0
0.01	0.228	-1.0
0.01	0.231	-1.0
0.01	0.234	-1.0
0.01	0.237	-1.0
0.01	0.24	-1.0
0.01	0.243	-1.0
0.01	0.246	-1.0
0.01	0.249	-1.0
0.01	0.252	-1.0
0.01	0.255	-1.0
0.01	0.258	-1.0
0.01	0.261	-1.0
0.01	0.264	-1.0
0.01	0.267	-1.0
0.01	0.27	-1.0
0.01	0.273	-1.0
0.01	0.276	-1.0
0.01	0.279	-1.0
0.01	0.282	-1.0
0.01	0.285	-1.0
0.01	0.288	-1.0
0.01	0.291	-1.0
0.01	0.294	-1.0
0.01	0.297	-1.0
0.01	0.3	-1.0
0.02	0.003	-1.0
0.02	0.006	-1.0
0.02	0.009	-1.0
0.02	0.012	-1.0
0.02	0.015	-1.0
0.02	0.018	-1.0
0.02	0.021	-1.0
0.02	0.024	-1.0
0.02	0.027	-1.0
0.02	0.03	-1.0
0.02	0.033	-1.0
0.02	0.036	-1.0
0.02	0.039	-1.0
0.02	0.042	-1.0
0.02	0.045	-1.0
0.02	0.048	-1.0
0.02	0.051	-1.0
0.02	0.054	-1.0
0.02	0.057	-1.0
0.02	0.06	-1.0
0.02	0.063	-1.0
0.02	0.066	-1.0
0.02	0.069	-1.0
0.02	0.072	-1.0
0.02	0.075	-1.0
0.02	0.078	-1.0
0.02	0.081	-1.0
0.02	0.084	-1.0
0.02	0.087	-1.0
0.02	0.09	-1.0
0.02	0.093	-1.0
0.02	0.096	-1.0
0.02	0.099	-1.0
0.02	0.102	-1.0
0.02	0.105	-1.0
0.02	0.108	-1.0
0.02	0.111	-1.0
0.02	0.114	-1.0
0.02	0.117	-1.0
0.02	0.12	-1.0
0.02	0.123	-1.0
0.02	0.126	-1.0
0.02	0.129	-1.0
0.02	0.132	-1.0
0.02	0.135	-1.0
0.02	0.138	-1.0
0.02	0.141	-1.0
0.02	0.144	-1.0
0.02	0.147	-1.0
0.02	0.15	-1.0
0.02	0.153	-1.0
0.02	0.156	-1.0
0.02	0.159	-1.0
0.02	0.162	-1.0
0.02	0.165	-1.0
0.02	0.168	-1.0
0.02	0.171	-1.0
0.02	0.174	-1.0
0.02	0.177	-1.0
0.02	0.18	-1.0
0.02	0.183	-1.0
0.02	0.186	-1.0
0.02	0.189	-1.0
0.02	0.192	-1.0
0.02	0.195	-1.0
0.02	0.198	-1.0
0.02	0.201	-1.0
0.02	0.204	-1.0
0.02	0.207	-1.0
0.02	0.21	-1.0
0.02	0.213	-1.0
0.02	0.216	-1.0
0.02	0.219	-1.0
0.02	0.222	-1.0
0.02	0.225	-1.0
0.02	0.228	-1.0
0.02	0.231	-1.0
0.02	0.234	-1.0
0.02	0.237	-1.0
0.02	0.24	-1.0
0.02	0.243	-1.0
0.02	0.246	-1.0
0.02	0.249	-1.0
0.02	0.252	-1.0
0.02	0.255	-1.0
0.02	0.258	-1.0
0.02	0.261	-1.0
0.02	0.264	-1.0
0.02	0.267	-1.0
0.02	0.27	-1.0
0.02	0.273	-1.0
0.02	0.276	-1.0
0.02	0.279	-1.0
0.02	0.282	-1.0
0.02	0.285	-1.0
0.02	0.288	-1.0
0.02	0.291	-1.0
0.02	0.294	-1.0
0.02	0.297	-1.0
0.02	0.3	-1.0
0.03	0.003	-1.0
0.03	0.006	-1.0
0.03	0.009	-1.0
0.03	0.012	-1.0
0.03	0.015	-1.0
0.03	0.018	-1.0
0.03	0.021	-1.0
0.03	0.024	-1.0
0.03	0.027	-1.0
0.03	0.03	-1.0
0.03	0.033	-1.0
0.03	0.036	-1.0
0.03	0.039	-1.0
0.03	0.042	-1.0
0.03	0.045	-1.0
0.03	0.048	-1.0
0.03	0.051	-1.0
0.03	0.054	-1.0
0.03	0.057	-1.0
0.03	0.06	-1.0
0.03	0.063	-1.0
0.03	0.066	-1.0
0.03	0.069	-1.0
0.03	0.072	-1.0
0.03	0.075	-1.0
0.03	0.078	-1.0
0.03	0.081	-1.0
0.03	0.084	-1.0
0.03	0.087	-1.0
0.03	0.09	-1.0
0.03	0.093	-1.0
0.03	0.096	-1.0
0.03	0.099	-1.0
0.03	0.102	-1.0
0.03	0.105	-1.0
0.03	0.108	-1.0
0.03	0.111	-1.0
0.03	0.114	-1.0
0.03	0.117	-1.0
0.03	0.12	-1.0
0.03	0.123	-1.0
0.03	0.126	-1.0
0.03	0.129	-1.0
0.03	0.132	-1.0
0.03	0.135	-1.0
0.03	0.138	-1.0
0.03	0.141	-1.0
0.03	0.144	-1.0
0.03	0.147	-1.0
0.03	0.15	-1.0
0.03	0.153	-1.0
0.03	0.156	-1.0
0.03	0.159	-1.0
0.03	0.162	-1.0
0.03	0.165	-1.0
0.03	0.168	-1.0
0.03	0.171	-1.0
0.03	0.174	-1.0
0.03	0.177	-1.0
0.03	0.18	-1.0
0.03	0.183	-1.0
0.03	0.186	-1.0
0.03	0.189	-1.0
0.03	0.192	-1.0
0.03	0.195	-1.0
0.03	0.198	-1.0
0.03	0.201	-1.0
0.03	0.204	-1.0
0.03	0.207	-1.0
0.03	0.21	-1.0
0.03	0.213	-1.0
0.03	0.216	-1.0
0.03	0.219	-1.0
0.03	0.222	-1.0
0.03	0.225	-1.0
0.03	0.228	-1.0
0.03	0.231	-1.0
0.03	0.234	-1.0
0.03	0.237	-1.0
0.03	0.24	-1.0
0.03	0.243	-1.0
0.03	0.246	-1.0
0.03	0.249	-1.0
0.03	0.252	-1.0
0.03	0.255	-1.0
0.03	0.258	-1.0
0.03	0.261	-1.0
0.03	0.264	-1.0
0.03	0.267	-1.0
0.03	0.27	-1.0
0.03	0.273	-1.0
0.03	0.276	-1.0
0.03	0.279	-1.0
0.03	0.282	-1.0
0.03	0.285	-1.0
0.03	0.288	-1.0
0.03	0.291	-1.0
0.03	0.294	-1.0
0.03	0.297	-1.0
0.03	0.3	-1.0
0.04	0.003	-1.0
0.04	0.006	-1.0
0.04	0.009	-1.0
0.04	0.012	-1.0
0.04	0.015	-1.0
0.04	0.018	-1.0
0.04	0.021	-1.0
0.04	0.024	-1.0
0.04	0.027	-1.0
0.04	0.03	-1.0
0.04	0.033	-1.0
0.04	0.036	-1.0
0.04	0.039	-1.0
0.04	0.042	-1.0
0.04	0.045	-1.0
0.04	0.048	-1.0
0.04	0.051	-1.0
0.04	0.054	-1.0
0.04	0.057	-1.0
0.04	0.06	-1.0
0.04	0.063	-1.0
0.04	0.066	-1.0
0.04	0.069	-1.0
0.04	0.072	-1.0
0.04	0.075	-1.0
0.04	0.078	-1.0
0.04	0.081	-1.0
0.04	0.084	-1.0
0.04	0.087	-1.0
0.04	0.09	-1.0
0.04	0.093	-1.0
0.04	0.096	-1.0
0.04	0.099	-1.0
0.04	0.102	-1.0
0.04	0.105	-1.0
0.04	0.108	-1.0
0.04	0.111	-1.0
0.04	0.114	-1.0
0.04	0.117	-1.0
0.04	0.12	-1.0
0.04	0.123	-1.0
0.04	0.126	-1.0
0.04	0.129	-1.0
0.04	0.132	-1.0
0.04	0.135	-1.0
0.04	0.138	-1.0
0.04	0.141	-1.0
0.04	0.144	-1.0
0.04	0.147	-1.0
0.04	0.15	-1.0
0.04	0.153	-1.0
0.04	0.156	-1.0
0.04	0.159	-1.0
0.04	0.162	-1.0
0.04	0.165	-1.0
0.04	0.168	-1.0
0.04	0.171	-1.0
0.04	0.174	-1.0
0.04	0.177	-1.0
0.04	0.18	-1.0
0.04	0.183	-1.0
0.04	0.186	-1.0
0.04	0.189	-1.0
0.04	0.192	-1.0
0.04	0.195	-1.0
0.04	0.198	-1.0
0.04	0.201	-1.0
0.04	0.204	-1.0
0.04	0.207	-1.0
0.04	0.21	-1.0
0.04	0.213	-1.0
0.04	0.216	-1.0
0.04	0.219	-1.0
0.04	0.222	-1.0
0.04	0.225	-1.0
0.04	0.228	-1.0
0.04	0.231	-1.0
0.04	0.234	-1.0
0.04	0.237	-1.0
0.04	0.24	-1.0
0.04	0.243	-1.0
0.04	0.246	-1.0
0.04	0.249	-1.0
0.04	0.252	-1.0
0.04	0.255	-1.0
0.04	0.258	-1.0
0.04	0.261	-1.0
0.04	0.264	-1.0
0.04	0.267	-1.0
0.04	0.27	-1.0
0.04	0.273	-1.0
0.04	0.276	-1.0
0.04	0.279	-1.0
0.04	0.282	-1.0
0.04	0.285	-1.0
0.04	0.288	-1.0
0.04	0.291	-1.0
0.04	0.294	-1.0
0.04	0.297	-1.0
0.04	0.3	-1.0
0.05	0.003	-1.0
0.05	0.006	-1.0
0.05	0.009	-1.0
0.05	0.012	-1.0
0.05	0.015	-1.0
0.05	0.018	-1.0
0.05	0.021	-1.0
0.05	0.024	-1.0
0.05	0.027	-1.0
0.05	0.03	-1.0
0.05	0.033	-1.0
0.05	0.036	-1.0
0.05	0.039	-1.0
0.05	0.042	-1.0
0.05	0.045	-1.0
0.05	0.048	-1.0
0.05	0.051	-1.0
0.05	0.054	-1.0
0.05	0.057	-1.0
0.05	0.06	-1.0
0.05	0.063	-1.0
0.05	0.066	-1.0
0.05	0.069	-1.0
0.05	0.072	-1.0
0.05	0.075	-1.0
0.05	0.078	-1.0
0.05	0.081	-1.0
0.05	0.084	-1.0
0.05	0.087	-1.0
0.05	0.09	-1.0
0.05	0.093	-1.0
0.05	0.096	-1.0
0.05	0.099	-1.0
0.05	0.102	-1.0
0.05	0.105	-1.0
0.05	0.108	-1.0
0.05	0.111	-1.0
0.05	0.114	-1.0
0.05	0.117	-1.0
0.05	0.12	-1.0
0.05	0.123	-1.0
0.05	0.126	-1.0
0.05	0.129	-1.0
0.05	0.132	-1.0
0.05	0.135	-1.0
0.05	0.138	-1.0
0.05	0.141	-1.0
0.05	0.144	-1.0
0.05	0.147	-1.0
0.05	0.15	-1.0
0.05	0.153	-1.0
0.05	0.156	-1.0
0.05	0.159	-1.0
0.05	0.162	-1.0
0.05	0.165	-1.0
0.05	0.168	-1.0
0.05	0.171	-1.0
0.05	0.174	-1.0
0.05	0.177	-1.0
0.05	0.18	-1.0
0.05	0.183	-1.0
0.05	0.186	-1.0
0.05	0.189	-1.0
0.05	0.192	-1.0
0.05	0.195	-1.0
0.05	0.198	-1.0
0.05	0.201	-1.0
0.05	0.204	-1.0
0.05	0.207	-1.0
0.05	0.21	-1.0
0.05	0.213	-1.0
0.05	0.216	-1.0
0.05	0.219	-1.0
0.05	0.222	-1.0
0.05	0.225	-1.0
0.05	0.228	-1.0
0.05	0.231	-1.0
0.05	0.234	-1.0
0.05	0.237	-1.0
0.05	0.24	-1.0
0.05	0.243	-1.0
0.05	0.246	-1.0
0.05	0.249	-1.0
0.05	0.252	-1.0
0.05	0.255	-1.0
0.05	0.258	-1.0
0.05	0.261	-1.0
0.05	0.264	-1.0
0.05	0.267	-1.0
0.05	0.27	-1.0
0.05	0.273	-1.0
0.05	0.276	-1.0
0.05	0.279	-1.0
0.05	0.282	-1.0
0.05	0.285	-1.0
0.05	0.288	-1.0
0.05	0.291	-1.0
0.05	0.294	-1.0
0.05	0.297	-1.0
0.05	0.3	-1.0
0.06	0.003	-1.0
0.06	0.006	-1.0
0.06	0.009	-1.0
0.06	0.012	-1.0
0.06	0.015	-1.0
0.06	0.018	-1.0
0.06	0.021	-1.0
0.06	0.024	-1.0
0.06	0.027	-1.0
0.06	0.03	-1.0
0.06	0.033	-1.0
0.06	0.036	-1.0
0.06	0.039	-1.0
0.06	0.042	-1.0
0.06	0.045	-1.0
0.06	0.048	-1.0
0.06	0.051	-1.0
0.06	0.054	-1.0
0.06	0.057	-1.0
0.06	0.06	-1.0
0.06	0.063	-1.0
0.06	0.066	-1.0
0.06	0.069	-1.0
0.06	0.072	-1.0
0.06	0.075	-1.0
0.06	0.078	-1.0
0.06	0.081	-1.0
0.06	0.084	-1.0
0.06	0.087	-1.0
0.06	0.09	-1.0
0.06	0.093	-1.0
0.06	0.096	-1.0
0.06	0.099	-1.0
0.06	0.102	-1.0
0.06	0.105	-1.0
0.06	0.108	-1.0
0.06	0.111	-1.0
0.06	0.114	-1.0
0.06	0.117	-1.0
0.06	0.12	-1.0
0.06	0.123	-1.0
0.06	0.126	-1.0
0.06	0.129	-1.0
0.06	0.132	-1.0
0.06	0.135	-1.0
0.06	0.138	-1.0
0.06	0.141	-1.0
0.06	0.144	-1.0
0.06	0.147	-1.0
0.06	0.15	-1.0
0.06	0.153	-1.0
0.06	0.156	-1.0
0.06	0.159	-1.0
0.06	0.162	-1.0
0.06	0.165	-1.0
0.06	0.168	-1.0
0.06	0.171	-1.0
0.06	0.174	-1.0
0.06	0.177	-1.0
0.06	0.18	-1.0
0.06	0.183	-1.0
0.06	0.186	-1.0
0.06	0.189	-1.0
0.06	0.192	-1.0
0.06	0.195	-1.0
0.06	0.198	-1.0
0.06	0.201	-1.0
0.06	0.204	-1.0
0.06	0.207	-1.0
0.06	0.21	-1.0
0.06	0.213	-1.0
0.06	0.216	-1.0
0.06	0.219	-1.0
0.06	0.222	-1.0
0.06	0.225	-1.0
0.06	0.228	-1.0
0.06	0.231	-1.0
0.06	0.234	-1.0
0.06	0.237	-1.0
0.06	0.24	-1.0
0.06	0.243	-1.0
0.06	0.246	-1.0
0.06	0.249	-1.0
0.06	0.252	-1.0
0.06	0.255	-1.0
0.06	0.258	-1.0
0.06	0.261	-1.0
0.06	0.264	-1.0
0.06	0.267	-1.0
0.06	0.27	-1.0
0.06	0.273	-1.0
0.06	0.276	-1.0
0.06	0.279	-1.0
0.06	0.282	-1.0
0.06	0.285	-1.0
0.06	0.288	-1.0
0.06	0.291	-1.0
0.06	0.294	-1.0
0.06	0.297	-1.0
0.06	0.3	-1.0
0.07	0.003	0.00025846423841734286
0.07	0.006	-1.0
0.07	0.009	-1.0
0.07	0.012	-1.0
0.07	0.015	-1.0
0.07	0.018	-1.0
0.07	0.021	-1.0
0.07	0.024	-1.0
0.07	0.027	-1.0
0.07	0.03	-1.0
0.07	0.033	-1.0
0.07	0.036	-1.0
0.07	0.039	-1.0
0.07	0.042	-1.0
0.07	0.045	-1.0
0.07	0.048	-1.0
0.07	0.051	-1.0
0.07	0.054	-1.0
0.07	0.057	-1.0
0.07	0.06	-1.0
0.07	0.063	-1.0
0.07	0.066	-1.0
0.07	0.069	-1.0
0.07	0.072	-1.0
0.07	0.075	-1.0
0.07	0.078	-1.0
0.07	0.081	-1.0
0.07	0.084	-1.0
0.07	0.087	-1.0
0.07	0.09	-1.0
0.07	0.093	-1.0
0.07	0.096	-1.0
0.07	0.099	-1.0
0.07	0.102	-1.0
0.07	0.105	-1.0
0.07	0.108	-1.0
0.07	0.111	-1.0
0.07	0.114	-1.0
0.07	0.117	-1.0
0.07	0.12	-1.0
0.07	0.123	-1.0
0.07	0.126	-1.0
0.07	0.129	-1.0
0.07	0.132	-1.0
0.07	0.135	-1.0
0.07	0.138	-1.0
0.07	0.141	-1.0
0.07	0.144	-1.0
0.07	0.147	-1.0
0.07	0.15	-1.0
0.07	0.153	-1.0
0.07	0.156	-1.0
0.07	0.159	-1.0
0.07	0.162	-1.0
0.07	0.165	-1.0
0.07	0.168	-1.0
0.07	0.171	-1.0
0.07	0.174	-1.0
0.07	0.177	-1.0
0.07	0.18	-1.0
0.07	0.183	-1.0
0.07	0.186	-1.0
0.07	0.189	-1.0
0.07	0.192	-1.0
0.07	0.195	-1.0
0.07	0.198	-1.0
0.07	0.201	-1.0
0.07	0.204	-1.0
0.07	0.207	-1.0
0.07	0.21	-1.0
0.07	0.213	-1.0
0.07	0.216	-1.0
0.07	0.219	-1.0
0.07	0.222	-1.0
0.07	0.225	-1.0
0.07	0.228	-1.0
0.07	0.231	-1.0
0.07	0.234	-1.0
0.07	0.237	-1.0
0.07	0.24	-1.0
0.07	0.243	-1.0
0.07	0.246	-1.0
0.07	0.249	-1.0
0.07	0.252	-1.0
0.07	0.255	-1.0
0.07	0.258	-1.0
0.07	0.261	-1.0
0.07	0.264	-1.0
0.07	0.267	-1.0
0.07	0.27	-1.0
0.07	0.273	-1.0
0.07	0.276	-1.0
0.07	0.279	-1.0
0.07	0.282	-1.0
0.07	0.285	-1.0
0.07	0.288	-1.0
0.07	0.291	-1.0
0.07	0.294	-1.0
0.07	0.297	-1.0
0.07	0.3	-1.0
0.08	0.003	0.0006211570637713377
0.08	0.006	0.00042127203387332145
0.08	0.009	0.00020537998583620485
0.08	0.012	-1.0
0.08	0.015	-1.0
0.08	0.018	-1.0
0.08	0.021	-1.0
0.08	0.024	-1.0
0.08	0.027	-1.0
0.08	0.03	-1.0
0.08	0.033	-1.0
0.08	0.036	-1.0
0.08	0.039	-1.0
0.08	0.042	-1.0
0.08	0.045	-1.0
0.08	0.048	-1.0
0.08	0.051	-1.0
0.08	0.054	-1.0
0.08	0.057	-1.0
0.08	0.06	-1.0
0.08	0.063	-1.0
0.08	0.066	-1.0
0.08	0.069	-1.0
0.08	0.072	-1.0
0.08	0.075	-1.0
0.08	0.078	-1.0
0.08	0.081	-1.0
0.08	0.084	-1.0
0.08	0.087	-1.0
0.08	0.09	-1.0
0.08	0.093	-1.0
0.08	0.096	-1.0
0.08	0.099	-1.0
0.08	0.102	-1.0
0.08	0.105	-1.0
0.08	0.108	-1.0
0.08	0.111	-1.0
0.08	0.114	-1.0
0.08	0.117	-1.0
0.08	0.12	-1.0
0.08	0.123	-1.0
0.08	0.126	-1.0
0.08	0.129	-1.0
0.08	0.132	-1.0
0.08	0.135	-1.0
0.08	0.138	-1.0
0.08	0.141	-1.0
0.08	0.144	-1.0
0.08	0.147	-1.0
0.08	0.15	-1.0
0.08	0.153	-1.0
0.08	0.156	-1.0
0.08	0.159	-1.0
0.08	0.162	-1.0
0.08	0.165	-1.0
0.08	0.168	-1.0
0.08	0.171	-1.0
0.08	0.174	-1.0
0.08	0.177	-1.0
0.08	0.18	-1.0
0.08	0.183	-1.0
0.08	0.186	-1.0
0.08	0.189	-1.0
0.08	0.192	-1.0
0.08	0.195	-1.0
0.08	0.198	-1.0
0.08	0.201	-1.0
0.08	0.204	-1.0
0.08	0.207	-1.0
0.08	0.21	-1.0
0.08	0.213	-1.0
0.08	0.216	-1.0
0.08	0.219	-1.0
0.08	0.222	-1.0
0.08	0.225	-1.0
0.08	0.228	-1.0
0.08	0.231	-1.0
0.08	0.234	-1.0
0.08	0.237	-1.0
0.08	0.24	-1.0
0.08	0.243	-1.0
0.08	0.246	-1.0
0.08	0.249	-1.0
0.08	0.252	-1.0
0.08	0.255	-1.0
0.08	0.258	-1.0
0.08	0.261	-1.0
0.08	0.264	-1.0
0.08	0.267	-1.0
0.08	0.27	-1.0
0.08	0.273	-1.0
0.08	0.276	-1.0
0.08	0.279	-1.0
0.08	0.282	-1.0
0.08	0.285	-1.0
0.08	0.288	-1.0
0.08	0.291	-1.0
0.08	0.294	-1.0
0.08	0.297	-1.0
0.08	0.3	-1.0
0.09	0.003	0.0009490952662171073
0.09	0.006	0.0007692024776377631
0.09	0.009	0.0005749900671277103
0.09	0.012	0.0003671212635537897
0.09	0.015	0.0001477652800663412
0.09	0.018	-1.0
0.09	0.021	-1.0
0.09	0.024	-1.0
0.09	0.027	-1.0
0.09	0.03	-1.0
0.09	0.033	-1.0
0.09	0.036	-1.0
0.09	0.039	-1.0
0.09	0.042	-1.0
0.09	0.045	-1.0
0.09	0.048	-1.0
0.09	0.051	-1.0
0.09	0.054	-1.0
0.09	0.057	-1.0
0.09	0.06	-1.0
0.09	0.063	-1.0
0.09	0.066	-1.0
0.09	0.069	-1.0
0.09	0.072	-1.0
0.09	0.075	-1.0
0.09	0.078	-1.0
0.09	0.081	-1.0
0.09	0.084	-1.0
0.09	0.087	-1.0
0.09	0.09	-1.0
0.09	0.093	-1.0
0.09	0.096	-1.0
0.09	0.099	-1.0
0.09	0.102	-1.0
0.09	0.105	-1.0
0.09	0.108	-1.0
0.09	0.111	-1.0
0.09	0.114	-1.0
0.09	0.117	-1.0
0.09	0.12	-1.0
0.09	0.123	-1.0
0.09	0.126	-1.0
0.09	0.129	-1.0
0.09	0.132	-1.0
0.09	0.135	-1.0
0.09	0.138	-1.0
0.09	0.141	-1.0
0.09	0.144	-1.0
0.09	0.147	-1.0
0.09	0.15	-1.0
0.09	0.153	-1.0
0.09	0.156	-1.0
0.09	0.159	-1.0
0.09	0.162	-1.0
0.09	0.165	-1.0
0.09	0.168	-1.0
0.09	0.171	-1.0
0.09	0.174	-1.0
0.09	0.177	-1.0
0.09	0.18	-1.0
0.09	0.183	-1.0
0.09	0.186	-1.0
0.09	0.189	-1.0
0.09	0.192	-1.0
0.09	0.195	-1.0
0.09	0.198	-1.0
0.09	0.201	-1.0
0.09	0.204	-1.0
0.09	0.207	-1.0
0.09	0.21	-1.0
0.09	0.213	-1.0
0.09	0.216	-1.0
0.09	0.219	-1.0
0.09	0.222	-1.0
0.09	0.225	-1.0
0.09	0.228	-1.0
0.09	0.231	-1.0
0.09	0.234	-1.0
0.09	0.237	-1.0
0.09	0.24	-1.0
0.09	0.243	-1.0
0.09	0.246	-1.0
0.09	0.249	-1.0
0.09	0.252	-1.0
0.09	0.255	-1.0
0.09	0.258	-1.0
0.09	0.261	-1.0
0.09	0.264	-1.0
0.09	0.267	-1.0
0.09	0.27	-1.0
0.09	0.273	-1.0
0.09	0.276	-1.0
0.09	0.279	-1.0
0.09	0.282	-1.0
0.09	0.285	-1.0
0.09	0.288	-1.0
0.09	0.291	-1.0
0.09	0.294	-1.0
0.09	0.297	-1.0
0.09	0.3	-1.0
0.1	0.003	0.0012434475675480753
0.1	0.006	0.0010796390367824671
0.1	0.009	0.0009019162516834089
0.1	0.012	0.0007111226916889334
0.1	0.015	0.0005087621424064438
0.1	0.018	0.00029578017858319347
0.1	0.021	-1.0
0.1	0.024	-1.0
0.1	0.027	-1.0
0.1	0.03	-1.0
0.1	0.033	-1.0
0.1	0.036	-1.0
0.1	0.039	-1.0
0.1	0.042	-1.0
0.1	0.045	-1.0
0.1	0.048	-1.0
0.1	0.051	-1.0
0.1	0.054	-1.0
0.1	0.057	-1.0
0.1	0.06	-1.0
0.1	0.063	-1.0
0.1	0.066	-1.0
0.1	0.069	-1.0
0.1	0.072	-1.0
0.1	0.075	-1.0
0.1	0.078	-1.0
0.1	0.081	-1.0
0.1	0.084	-1.0
0.1	0.087	-1.0
0.1	0.09	-1.0
0.1	0.093	-1.0
0.1	0.096	-1.0
0.1	0.099	-1.0
0.1	0.102	-1.0
0.1	0.105	-1.0
0.1	0.108	-1.0
0.1	0.111	-1.0
0.1	0.114	-1.0
0.1	0.117	-1.0
0.1	0.12	-1.0
0.1	0.123	-1.0
0.1	0.126	-1.0
0.1	0.129	-1.0
0.1	0.132	-1.0
0.1	0.135	-1.0
0.1	0.138	-1.0
0.1	0.141	-1.0
0.1	0.144	-1.0
0.1	0.147	-1.0
0.1	0.15	-1.0
0.1	0.153	-1.0
0.1	0.156	-1.0
0.1	0.159	-1.0
0.1	0.162	-1.0
0.1	0.165	-1.0
0.1	0.168	-1.0
0.1	0.171	-1.0
0.1	0.174	-1.0
0.1	0.177	-1.0
0.1	0.18	-1.0
0.1	0.183	-1.0
0.1	0.186	-1.0
0.1	0.189	-1.0
0.1	0.192	-1.0
0.1	0.195	-1.0
0.1	0.198	-1.0
0.1	0.201	-1.0
0.1	0.204	-1.0
0.1	0.207	-1.0
0.1	0.21	-1.0
0.1	0.213	-1.0
0.1	0.216	-1.0
0.1	0.219	-1.0
0.1	0.222	-1.0
0.1	0.225	-1.0
0.1	0.228	-1.0
0.1	0.231	-1.0
0.1	0.234	-1.0
0.1	0.237	-1.0
0.1	0.24	-1.0
0.1	0.243	-1.0
0.1	0.246	-1.0
0.1	0.249	-1.0
0.1	0.252	-1.0
0.1	0.255	-1.0
0.1	0.258	-1.0
0.1	0.261	-1.0
0.1	0.264	-1.0
0.1	0.267	-1.0
0.1	0.27	-1.0
0.1	0.273	-1.0
0.1	0.276	-1.0
0.1	0.279	-1.0
0.1	0.282	-1.0
0.1	0.285	-1.0
0.1	0.288	-1.0
0.1	0.291	-1.0
0.1	0.294	-1.0
0.1	0.297	-1.0
0.1	0.3	-1.0
0.11	0.003	0.0015045846135259117
0.11	0.006	0.0013537987809322206
0.11	0.009	0.0011894056189824024
0.11	0.012	0.0010116226382352986
0.11	0.015	0.000822071420250887
0.11	0.018	0.0006217901380296654
0.11	0.021	0.00041087285033618184
0.11	0.024	0.00019155689847464248
0.11	0.027	-1.0
0.11	0.03	-1.0
0.11	0.033	-1.0
0.11	0.036	-1.0
0.11	0.039	-1.0
0.11	0.042	-1.0
0.11	0.045	-1.0
0.11	0.048	-1.0
0.11	0.051	-1.0
0.11	0.054	-1.0
0.11	0.057	-1.0
0.11	0.06	-1.0
0.11	0.063	-1.0
0.11	0.066	-1.0
0.11	0.069	-1.0
0.11	0.072	-1.0
0.11	0.075	-1.0
0.11	0.078	-1.0
0.11	0.081	-1.0
0.11	0.084	-1.0
0.11	0.087	-1.0
0.11	0.09	-1.0
0.11	0.093	-1.0
0.11	0.096	-1.0
0.11	0.099	-1.0
0.11	0.102	-1.0
0.11	0.105	-1.0
0.11	0.108	-1.0
0.11	0.111	-1.0
0.11	0.114	-1.0
0.11	0.117	-1.0
0.11	0.12	-1.0
0.11	0.123	-1.0
0.11	0.126	-1.0
0.11	0.129	-1.0
0.11	0.132	-1.0
0.11	0.135	-1.0
0.11	0.138	-1.0
0.11	0.141	-1.0
0.11	0.144	-1.0
0.11	0.147	-1.0
0.11	0.15	-1.0
0.11	0.153	-1.0
0.11	0.156	-1.0
0.11	0.159	-1.0
0.11	0.162	-1.0
0.11	0.165	-1.0
0.11	0.168	-1.0
0.11	0.171	-1.0
0.11	0.174	-1.0
0.11	0.177	-1.0
0.11	0.18	-1.0
0.11	0.183	-1.0
0.11	0.186	-1.0
0.11	0.189	-1.0
0.11	0.192	-1.0
0.11	0.195	-1.0
0.11	0.198	-1.0
0.11	0.201	-1.0
0.11	0.204	-1.0
0.11	0.207	-1.0
0.11	0.21	-1.0
0.11	0.213	-1.0
0.11	0.216	-1.0
0.11	0.219	-1.0
0.11	0.222	-1.0
0.11	0.225	-1.0
0.11	0.228	-1.0
0.11	0.231	-1.0
0.11	0.234	-1.0
0.11	0.237	-1.0
0.11	0.24	-1.0
0.11	0.243	-1.0
0.11	0.246	-1.0
0.11	0.249	-1.0
0.11	0.252	-1.0
0.11	0.255	-1.0
0.11	0.258	-1.0
0.11	0.261	-1.0
0.11	0.264	-1.0
0.11	0.267	-1.0
0.11	0.27	-1.0
0.11	0.273	-1.0
0.11	0.276	-1.0
0.11	0.279	-1.0
0.11	0.282	-1.0
0.11	0.285	-1.0
0.11	0.288	-1.0
0.11	0.291	-1.0
0.11	0.294	-1.0
0.11	0.297	-1.0
0.11	0.3	-1.0
0.12	0.003	0.001733563852459264
0.12	0.006	0.0015920400350159997
0.12	0.009	0.0014372202018427245
0.12	0.012	0.0012695544718727943
0.12	0.015	0.0010898849071544169
0.12	0.018	0.000899166841373282
0.12	0.021	0.000697841963713353
0.12	0.024	0.0004870590753653515
0.12	0.027	0.00026690976805848873
0.12	0.03	-1.0
0.12	0.033	-1.0
0.12	0.036	-1.0
0.12	0.039	-1.0
0.12	0.042	-1.0
0.12	0.045	-1.0
0.12	0.048	-1.0
0.12	0.051	-1.0
0.12	0.054	-1.0
0.12	0.057	-1.0
0.12	0.06	-1.0
0.12	0.063	-1.0
0.12	0.066	-1.0
0.12	0.069	-1.0
0.12	0.072	-1.0
0.12	0.075	-1.0
0.12	0.078	-1.0
0.12	0.081	-1.0
0.12	0.084	-1.0
0.12	0.087	-1.0
0.12	0.09	-1.0
0.12	0.093	-1.0
0.12	0.096	-1.0
0.12	0.099	-1.0
0.12	0.102	-1.0
0.12	0.105	-1.0
0.12	0.108	-1.0
0.12	0.111	-1.0
0.12	0.114	-1.0
0.12	0.117	-1.0
0.12	0.12	-1.0
0.12	0.123	-1.0
0.12	0.126	-1.0
0.12	0.129	-1.0
0.12	0.132	-1.0
0.12	0.135	-1.0
0.12	0.138	-1.0
0.12	0.141	-1.0
0.12	0.144	-1.0
0.12	0.147	-1.0
0.12	0.15	-1.0
0.12	0.153	-1.0
0.12	0.156	-1.0
0.12	0.159	-1.0
0.12	0.162	-1.0
0.12	0.165	-1.0
0.12	0.168	-1.0
0.12	0.171	-1.0
0.12	0.174	-1.0
0.12	0.177	-1.0
0.12	0.18	-1.0
0.12	0.183	-1.0
0.12	0.186	-1.0
0.12	0.189	-1.0
0.12	0.192	-1.0
0.12	0.195	-1.0
0.12	0.198	-1.0
0.12	0.201	-1.0
0.12	0.204	-1.0
0.12	0.207	-1.0
0.12	0.21	-1.0
0.12	0.213	-1.0
0.12	0.216	-1.0
0.12	0.219	-1.0
0.12	0.222	-1.0
0.12	0.225	-1.0
0.12	0.228	-1.0
0.12	0.231	-1.0
0.12	0.234	-1.0
0.12	0.237	-1.0
0.12	0.24	-1.0
0.12	0.243	-1.0
0.12	0.246	-1.0
0.12	0.249	-1.0
0.12	0.252	-1.0
0.12	0.255	-1.0
0.12	0.258	-1.0
0.12	0.261	-1.0
0.12	0.264	-1.0
0.12	0.267	-1.0
0.12	0.27	-1.0
0.12	0.273	-1.0
0.12	0.276	-1.0
0.12	0.279	-1.0
0.12	0.282	-1.0
0.12	0.285	-1.0
0.12	0.288	-1.0
0.12	0.291	-1.0
0.12	0.294	-1.0
0.12	0.297	-1.0
0.12	0.3	-1.0
0.13	0.003	0.001928721612041913
0.13	0.006	0.001794310053614773
0.13	0.009	0.00164649476675628
0.13	0.012	0.0014855931639142486
0.13	0.015	0.0013131436327798085
0.13	0.018	0.0011294371690712122
0.13	0.021	0.0009349995231400163
0.13	0.024	0.000729871707147473
0.13	0.027	0.0005160195285691365
0.13	0.03	0.0002923637987348241
0.13	0.033	-1.0
0.13	0.036	-1.0
0.13	0.039	-1.0
0.13	0.042	-1.0
0.13	0.045	-1.0
0.13	0.048	-1.0
0.13	0.051	-1.0
0.13	0.054	-1.0
0.13	0.057	-1.0
0.13	0.06	-1.0
0.13	0.063	-1.0
0.13	0.066	-1.0
0.13	0.069	-1.0
0.13	0.072	-1.0
0.13	0.075	-1.0
0.13	0.078	-1.0
0.13	0.081	-1.0
0.13	0.084	-1.0
0.13	0.087	-1.0
0.13	0.09	-1.0
0.13	0.093	-1.0
0.13	0.096	-1.0
0.13	0.099	-1.0
0.13	0.102	-1.0
0.13	0.105	-1.0
0.13	0.108	-1.0
0.13	0.111	-1.0
0.13	0.114	-1.0
0.13	0.117	-1.0
0.13	0.12	-1.0
0.13	0.123	-1.0
0.13	0.126	-1.0
0.13	0.129	-1.0
0.13	0.132	-1.0
0.13	0.135	-1.0
0.13	0.138	-1.0
0.13	0.141	-1.0
0.13	0.144	-1.0
0.13	0.147	-1.0
0.13	0.15	-1.0
0.13	0.153	-1.0
0.13	0.156	-1.0
0.13	0.159	-1.0
0.13	0.162	-1.0
0.13	0.165	-1.0
0.13	0.168	-1.0
0.13	0.171	-1.0
0.13	0.174	-1.0
0.13	0.177	-1.0
0.13	0.18	-1.0
0.13	0.183	-1.0
0.13	0.186	-1.0
0.13	0.189	-1.0
0.13	0.192	-1.0
0.13	0.195	-1.0
0.13	0.198	-1.0
0.13	0.201	-1.0
0.13	0.204	-1.0
0.13	0.207	-1.0
0.13	0.21	-1.0
0.13	0.213	-1.0
0.13	0.216	-1.0
0.13	0.219	-1.0
0.13	0.222	-1.0
0.13	0.225	-1.0
0.13	0.228	-1.0
0.13	0.231	-1.0
0.13	0.234	-1.0
0.13	0.237	-1.0
0.13	0.24	-1.0
0.13	0.243	-1.0
0.13	0.246	-1.0
0.13	0.249	-1.0
0.13	0.252	-1.0
0.13	0.255	-1.0
0.13	0.258	-1.0
0.13	0.261	-1.0
0.13	0.264	-1.0
0.13	0.267	-1.0
0.13	0.27	-1.0
0.13	0.273	-1.0
0.13	0.276	-1.0
0.13	0.279	-1.0
0.13	0.282	-1.0
0.13	0.285	-1.0
0.13	0.288	-1.0
0.13	0.291	-1.0
0.13	0.294	-1.0
0.13	0.297	-1.0
0.13	0.3	-1.0
0.14	0.003	0.002091228412344366
0.14	0.006	0.0019611821027174917
0.14	0.009	0.0018174074195598652
0.14	0.012	0.0016611106846904152
0.14	0.015	0.0014930469514348465
0.14	0.018	0.0013131917079088145
0.14	0.021	0.001122524587197739
0.14	0.024	0.0009211514571958383
0.14	0.027	0.000709663127780651
0.14	0.03	0.0004884005222496099
0.14	0.033	0.0002580336148599368
0.14	0.036	-1.0
0.14	0.039	-1.0
0.14	0.042	-1.0
0.14	0.045	-1.0
0.14	0.048	-1.0
0.14	0.051	-1.0
0.14	0.054	-1.0
0.14	0.057	-1.0
0.14	0.06	-1.0
0.14	0.063	-1.0
0.14	0.066	-1.0
0.14	0.069	-1.0
0.14	0.072	-1.0
0.14	0.075	-1.0
0.14	0.078	-1.0
0.14	0.081	-1.0
0.14	0.084	-1.0
0.14	0.087	-1.0
0.14	0.09	-1.0
0.14	0.093	-1.0
0.14	0.096	-1.0
0.14	0.099	-1.0
0.14	0.102	-1.0
0.14	0.105	-1.0
0.14	0.108	-1.0
0.14	0.111	-1.0
0.14	0.114	-1.0
0.14	0.117	-1.0
0.14	0.12	-1.0
0.14	0.123	-1.0
0.14	0.126	-1.0
0.14	0.129	-1.0
0.14	0.132	-1.0
0.14	0.135	-1.0
0.14	0.138	-1.0
0.14	0.141	-1.0
0.14	0.144	-1.0
0.14	0.147	-1.0
0.14	0.15	-1.0
0.14	0.153	-1.0
0.14	0.156	-1.0
0.14	0.159	-1.0
0.14	0.162	-1.0
0.14	0.165	-1.0
0.14	0.168	-1.0
0.14	0.171	-1.0
0.14	0.174	-1.0
0.14	0.177	-1.0
0.14	0.18	-1.0
0.14	0.183	-1.0
0.14	0.186	-1.0
0.14	0.189	-1.0
0.14	0.192	-1.0
0.14	0.195	-1.0
0.14	0.198	-1.0
0.14	0.201	-1.0
0.14	0.204	-1.0
0.14	0.207	-1.0
0.14	0.21	-1.0
0.14	0.213	-1.0
0.14	0.216	-1.0
0.14	0.219	-1.0
0.14	0.222	-1.0
0.14	0.225	-1.0
0.14	0.228	-1.0
0.14	0.231	-1.0
0.14	0.234	-1.0
0.14	0.237	-1.0
0.14	0.24	-1.0
0.14	0.243	-1.0
0.14	0.246	-1.0
0.14	0.249	-1.0
0.14	0.252	-1.0
0.14	0.255	-1.0
0.14	0.258	-1.0
0.14	0.261	-1.0
0.14	0.264	-1.0
0.14	0.267	-1.0
0.14	0.27	-1.0
0.14	0.273	-1.0
0.14	0.276	-1.0
0.14	0.279	-1.0
0.14	0.282	-1.0
0.14	0.285	-1.0
0.14	0.288	-1.0
0.14	0.291	-1.0
0.14	0.294	-1.0
0.14	0.297	-1.0
0.14	0.3	-1.0
0.15	0.003	0.0022192240061656245
0.15	0.006	0.0020914750574425765
0.15	0.009	0.0019499512149639292
0.15	0.012	0.001795799472507009
0.15	0.015	0.0016296809545807904
0.15	0.018	0.0014512109378594542
0.15	0.021	0.0012614567871483732
0.15	0.024	0.001060356915895241
0.15	0.027	0.000849311904301667
0.15	0.03	0.000627454721731107
0.15	0.033	0.000395628462260049
0.15	0.036	0.00015378377435344443
0.15	0.039	-5.6313431409633095e-5
0.15	0.042	-5.743522535070127e-5
0.15	0.045	-5.8073355266165774e-5
0.15	0.048	-6.107848061537005e-5
0.15	0.051	-6.33891022431616e-5
0.15	0.054	-6.260168474670646e-5
0.15	0.057	-6.653058697338602e-5
0.15	0.06	-6.850275334794496e-5
0.15	0.063	-6.734147946569606e-5
0.15	0.066	-7.153726443506574e-5
0.15	0.069	-7.262822160955998e-5
0.15	0.072	-7.461550088439004e-5
0.15	0.075	-7.658483157141407e-5
0.15	0.078	-7.851575246978648e-5
0.15	0.081	-7.964238399451237e-5
0.15	0.084	-8.143339007306515e-5
0.15	0.087	-8.313712666500036e-5
0.15	0.09	-8.48351388362441e-5
0.15	0.093	-8.69915443584224e-5
0.15	0.096	-8.679199510547796e-5
0.15	0.099	-9.117228638649973e-5
0.15	0.102	-9.34670822240744e-5
0.15	0.105	-9.31986691084132e-5
0.15	0.108	-9.706167519435377e-5
0.15	0.111	-9.980822637214884e-5
0.15	0.114	-9.691871785283259e-5
0.15	0.117	-0.00010247574094127854
0.15	0.12	-0.00010566903777407222
0.15	0.123	-0.00011151490330265361
0.15	0.126	-0.00011381676108067938
0.15	0.129	-0.00011587711625947376
0.15	0.132	-0.00011916278691846197
0.15	0.135	-0.00012353442839442168
0.15	0.138	-0.00012622897008775257
0.15	0.141	-0.00012900275204490212
0.15	0.144	-0.00013187285730941088
0.15	0.147	-0.00013480011279999124
0.15	0.15	-0.00013778209274362786
0.15	0.153	-0.00013206641741453343
0.15	0.156	-0.00014804224192193878
0.15	0.159	-0.00015188924927626903
0.15	0.162	-0.00015350813043937415
0.15	0.165	-0.00015889524459393562
0.15	0.168	-0.00016231667226356973
0.15	0.171	-0.00016651550301677643
0.15	0.174	-0.00017024942705857354
0.15	0.177	-0.00017389445545171292
0.15	0.18	-0.0001778337825526918
0.15	0.183	-0.00018062371295808697
0.15	0.186	-0.00017768869801449273
0.15	0.189	-0.0001905896529873945
0.15	0.192	-0.00019790771185450708
0.15	0.195	-0.0002017553684894181
0.15	0.198	-0.0002032492485048595
0.15	0.201	-0.0002077363864293724
0.15	0.204	-0.00021095354790502124
0.15	0.207	-0.000213934596096876
0.15	0.21	-0.00021916177202120553
0.15	0.213	-0.00022137922755141433
0.15	0.216	-0.00022527168633133194
0.15	0.219	-0.0002292826514485249
0.15	0.222	-0.00023341314394239516
0.15	0.225	-0.0002376694857084484
0.15	0.228	-0.0002418292336798008
0.15	0.231	-0.0002463377521156826
0.15	0.234	-0.0002508010503218992
0.15	0.237	-0.00025535243341005896
0.15	0.24	-0.000259958903803582
0.15	0.243	-0.00026447353419892434
0.15	0.246	-0.0002694486116043386
0.15	0.249	-0.00027368521115344317
0.15	0.252	-0.000278593306291434
0.15	0.255	-0.00028356793994520075
0.15	0.258	-0.0002886097460738522
0.15	0.261	-0.0002937179762352044
0.15	0.264	-0.0002988943718831228
0.15	0.267	-0.00030413413799025275
0.15	0.27	-0.0003094376622908381
0.15	0.273	-0.0003148059933638806
0.15	0.276	-0.0003202391382645908
0.15	0.279	-0.00032573676953942304
0.15	0.282	-0.0003312976797406223
0.15	0.285	-0.00033690849991095114
0.15	0.288	-0.0003425947281561821
0.15	0.291	-0.0003483432419328063
0.15	0.294	-0.000354153542874716
0.15	0.297	-0.0003600499802718348
0.15	0.3	-0.00036598794304133314
0.16	0.003	0.0023134952952340053
0.16	0.006	0.002185347820782127
0.16	0.009	0.002044048028194261
0.16	0.012	0.0018892985341180952
0.16	0.015	0.001722211576240946
0.16	0.018	0.0015425002727700963
0.16	0.021	0.0013510910037031682
0.16	0.024	0.0011480411423294527
0.16	0.027	0.0009333501289059073
0.16	0.03	0.0007082902274124929
0.16	0.033	0.00047195891063964537
0.16	0.036	0.00022480500298030737
0.16	0.039	-3.294041074605283e-5
0.16	0.042	-6.885381884744169e-5
0.16	0.045	-7.00009174528431e-5
0.16	0.048	-7.065149063210646e-5
0.16	0.051	-7.518305740850602e-5
0.16	0.054	-7.662971142361033e-5
0.16	0.057	-7.759551495233433e-5
0.16	0.06	-7.655543134638334e-5
0.16	0.063	-7.786852267719227e-5
0.16	0.066	-7.939783263263428e-5
0.16	0.069	-8.435991176798312e-5
0.16	0.072	-8.495830214668255e-5
0.16	0.075	-8.701159649885279e-5
0.16	0.078	-8.86066855067989e-5
0.16	0.081	-9.020225324819336e-5
0.16	0.084	-9.19059425738416e-5
0.16	0.087	-9.364041734471157e-5
0.16	0.09	-9.53824952778799e-5
0.16	0.093	-9.716982268342242e-5
0.16	0.096	-9.89995378119036e-5
0.16	0.099	-0.00010148651143572137
0.16	0.102	-9.122211399425794e-5
0.16	0.105	-8.969833765748203e-5
0.16	0.108	-8.823604323373473e-5
0.16	0.111	-0.00010981558042763371
0.16	0.114	-0.00011467405032649761
0.16	0.117	-0.00011240562596664827
0.16	0.12	-0.0001144510875598341
0.16	0.123	-0.00011730801840270474
0.16	0.126	-0.00012155968396430404
0.16	0.129	-0.00012644925141695192
0.16	0.132	-0.00013011890387517873
0.16	0.135	-0.00013293923466456403
0.16	0.138	-0.00013737914419282803
0.16	0.141	-0.00013758966247961007
0.16	0.144	-0.00014224155996847261
0.16	0.147	-0.00014402767258786693
0.16	0.15	-0.0001481054617937139
0.16	0.153	-0.0001511810910965763
0.16	0.156	-0.0001543185594365028
0.16	0.159	-0.00015823947427823725
0.16	0.162	-0.00015877474577160632
0.16	0.165	-0.0001681912869023195
0.16	0.168	-0.00017048680366086054
0.16	0.171	-0.0001760886927169966
0.16	0.174	-0.00018007766810656386
0.16	0.177	-0.00018288663786687333
0.16	0.18	-0.00018741094122233756
0.16	0.183	-0.00019123171364406576
0.16	0.186	-0.00019509913383774496
0.16	0.189	-0.00019907443094904732
0.16	0.192	-0.00020319318033239353
0.16	0.195	-0.00020320338766515768
0.16	0.198	-0.0002146602922086291
0.16	0.201	-0.0002187310189092171
0.16	0.204	-0.00021888680817165078
0.16	0.207	-0.0002135316400657703
0.16	0.21	-0.00023233724450530375
0.16	0.213	-0.0002350214160681719
0.16	0.216	-0.00023843894643041402
0.16	0.219	-0.00024208093642055523
0.16	0.222	-0.00024579386312808984
0.16	0.225	-0.00025075225166825636
0.16	0.228	-0.000253737394401644
0.16	0.231	-0.00025374171841181385
0.16	0.234	-0.00026246479852173025
0.16	0.237	-0.00026695144760870544
0.16	0.24	-0.00027147547346667887
0.16	0.243	-0.00027606097085182874
0.16	0.246	-0.0002807398162779456
0.16	0.249	-0.0002854140561144588
0.16	0.252	-0.0002903113871698266
0.16	0.255	-0.00029525879292524766
0.16	0.258	-0.00030028023260385777
0.16	0.261	-0.0003053354563150967
0.16	0.264	-0.0003103173570127243
0.16	0.267	-0.00031556026159516366
0.16	0.27	-0.00032087746747592815
0.16	0.273	-0.0003257554239080649
0.16	0.276	-0.0003311632232054155
0.16	0.279	-0.0003366360162965041
0.16	0.282	-0.00034217365604075794
0.16	0.285	-0.00034777717297202517
0.16	0.288	-0.00035431356236973057
0.16	0.291	-0.00035917639811319384
0.16	0.294	-0.0003649718323183309
0.16	0.297	-0.00037083039062130624
0.16	0.3	-0.00037675258476492236
0.17	0.003	0.002372969480975039
0.17	0.006	0.002242744047666032
0.17	0.009	0.002098496812612484
0.17	0.012	0.001941276858991855