Variables="alpha" "beta" "omega"
Zone T="1" I=200 J=70
0.01	0.00125	-1.0
0.01	0.0025	-1.0
0.01	0.00375	-1.0
0.01	0.005	-1.0
0.01	0.00625	-1.0
0.01	0.0075	-1.0
0.01	0.00875	-1.0
0.01	0.01	-1.0
0.01	0.01125	-1.0
0.01	0.0125	-1.0
0.01	0.01375	-1.0
0.01	0.015	-1.0
0.01	0.01625	-1.0
0.01	0.0175	-1.0
0.01	0.01875	-1.0
0.01	0.02	-1.0
0.01	0.02125	-1.0
0.01	0.0225	-1.0
0.01	0.02375	-1.0
0.01	0.025	-1.0
0.01	0.02625	-1.0
0.01	0.0275	-1.0
0.01	0.02875	-1.0
0.01	0.03	-1.0
0.01	0.03125	-1.0
0.01	0.0325	-1.0
0.01	0.03375	-1.0
0.01	0.035	-1.0
0.01	0.03625	-1.0
0.01	0.0375	-1.0
0.01	0.03875	-1.0
0.01	0.04	-1.0
0.01	0.04125	-1.0
0.01	0.0425	-1.0
0.01	0.04375	-1.0
0.01	0.045	-1.0
0.01	0.04625	-1.0
0.01	0.0475	-1.0
0.01	0.04875	-1.0
0.01	0.05	-1.0
0.01	0.05125	-1.0
0.01	0.0525	-1.0
0.01	0.05375	-1.0
0.01	0.055	-1.0
0.01	0.05625	-1.0
0.01	0.0575	-1.0
0.01	0.05875	-1.0
0.01	0.06	-1.0
0.01	0.06125	-1.0
0.01	0.0625	-1.0
0.01	0.06375	-1.0
0.01	0.065	-1.0
0.01	0.06625	-1.0
0.01	0.0675	-1.0
0.01	0.06875	-1.0
0.01	0.07	-1.0
0.01	0.07125	-1.0
0.01	0.0725	-1.0
0.01	0.07375	-1.0
0.01	0.075	-1.0
0.01	0.07625	-1.0
0.01	0.0775	-1.0
0.01	0.07875	-1.0
0.01	0.08	-1.0
0.01	0.08125	-1.0
0.01	0.0825	-1.0
0.01	0.08375	-1.0
0.01	0.085	-1.0
0.01	0.08625	-1.0
0.01	0.0875	-1.0
0.01	0.08875	-1.0
0.01	0.09	-1.0
0.01	0.09125	-1.0
0.01	0.0925	-1.0
0.01	0.09375	-1.0
0.01	0.095	-1.0
0.01	0.09625	-1.0
0.01	0.0975	-1.0
0.01	0.09875	-1.0
0.01	0.1	-1.0
0.01	0.10125	-1.0
0.01	0.1025	-1.0
0.01	0.10375	-1.0
0.01	0.105	-1.0
0.01	0.10625	-1.0
0.01	0.1075	-1.0
0.01	0.10875	-1.0
0.01	0.11	-1.0
0.01	0.11125	-1.0
0.01	0.1125	-1.0
0.01	0.11375	-1.0
0.01	0.115	-1.0
0.01	0.11625	-1.0
0.01	0.1175	-1.0
0.01	0.11875	-1.0
0.01	0.12	-1.0
0.01	0.12125	-1.0
0.01	0.1225	-1.0
0.01	0.12375	-1.0
0.01	0.125	-1.0
0.01	0.12625	-1.0
0.01	0.1275	-1.0
0.01	0.12875	-1.0
0.01	0.13	-1.0
0.01	0.13125	-1.0
0.01	0.1325	-1.0
0.01	0.13375	-1.0
0.01	0.135	-1.0
0.01	0.13625	-1.0
0.01	0.1375	-1.0
0.01	0.13875	-1.0
0.01	0.14	-1.0
0.01	0.14125	-1.0
0.01	0.1425	-1.0
0.01	0.14375	-1.0
0.01	0.145	-1.0
0.01	0.14625	-1.0
0.01	0.1475	-1.0
0.01	0.14875	-1.0
0.01	0.15	-1.0
0.01	0.15125	-1.0
0.01	0.1525	-1.0
0.01	0.15375	-1.0
0.01	0.155	-1.0
0.01	0.15625	-1.0
0.01	0.1575	-1.0
0.01	0.15875	-1.0
0.01	0.16	-1.0
0.01	0.16125	-1.0
0.01	0.1625	-1.0
0.01	0.16375	-1.0
0.01	0.165	-1.0
0.01	0.16625	-1.0
0.01	0.1675	-1.0
0.01	0.16875	-1.0
0.01	0.17	-1.0
0.01	0.17125	-1.0
0.01	0.1725	-1.0
0.01	0.17375	-1.0
0.01	0.175	-1.0
0.01	0.17625	-1.0
0.01	0.1775	-1.0
0.01	0.17875	-1.0
0.01	0.18	-1.0
0.01	0.18125	-1.0
0.01	0.1825	-1.0
0.01	0.18375	-1.0
0.01	0.185	-1.0
0.01	0.18625	-1.0
0.01	0.1875	-1.0
0.01	0.18875	-1.0
0.01	0.19	-1.0
0.01	0.19125	-1.0
0.01	0.1925	-1.0
0.01	0.19375	-1.0
0.01	0.195	-1.0
0.01	0.19625	-1.0
0.01	0.1975	-1.0
0.01	0.19875	-1.0
0.01	0.2	-1.0
0.01	0.20125	-1.0
0.01	0.2025	-1.0
0.01	0.20375	-1.0
0.01	0.205	-1.0
0.01	0.20625	-1.0
0.01	0.2075	-1.0
0.01	0.20875	-1.0
0.01	0.21	-1.0
0.01	0.21125	-1.0
0.01	0.2125	-1.0
0.01	0.21375	-1.0
0.01	0.215	-1.0
0.01	0.21625	-1.0
0.01	0.2175	-1.0
0.01	0.21875	-1.0
0.01	0.22	-1.0
0.01	0.22125	-1.0
0.01	0.2225	-1.0
0.01	0.22375	-1.0
0.01	0.225	-1.0
0.01	0.22625	-1.0
0.01	0.2275	-1.0
0.01	0.22875	-1.0
0.01	0.23	-1.0
0.01	0.23125	-1.0
0.01	0.2325	-1.0
0.01	0.23375	-1.0
0.01	0.235	-1.0
0.01	0.23625	-1.0
0.01	0.2375	-1.0
0.01	0.23875	-1.0
0.01	0.24	-1.0
0.01	0.24125	-1.0
0.01	0.2425	-1.0
0.01	0.24375	-1.0
0.01	0.245	-1.0
0.01	0.24625	-1.0
0.01	0.2475	-1.0
0.01	0.24875	-1.0
0.01	0.25	-1.0
0.02	0.00125	-1.0
0.02	0.0025	-1.0
0.02	0.00375	-1.0
0.02	0.005	-1.0
0.02	0.00625	-1.0
0.02	0.0075	-1.0
0.02	0.00875	-1.0
0.02	0.01	-1.0
0.02	0.01125	-1.0
0.02	0.0125	-1.0
0.02	0.01375	-1.0
0.02	0.015	-1.0
0.02	0.01625	-1.0
0.02	0.0175	-1.0
0.02	0.01875	-1.0
0.02	0.02	-1.0
0.02	0.02125	-1.0
0.02	0.0225	-1.0
0.02	0.02375	-1.0
0.02	0.025	-1.0
0.02	0.02625	-1.0
0.02	0.0275	-1.0
0.02	0.02875	-1.0
0.02	0.03	-1.0
0.02	0.03125	-1.0
0.02	0.0325	-1.0
0.02	0.03375	-1.0
0.02	0.035	-1.0
0.02	0.03625	-1.0
0.02	0.0375	-1.0
0.02	0.03875	-1.0
0.02	0.04	-1.0
0.02	0.04125	-1.0
0.02	0.0425	-1.0
0.02	0.04375	-1.0
0.02	0.045	-1.0
0.02	0.04625	-1.0
0.02	0.0475	-1.0
0.02	0.04875	-1.0
0.02	0.05	-1.0
0.02	0.05125	-1.0
0.02	0.0525	-1.0
0.02	0.05375	-1.0
0.02	0.055	-1.0
0.02	0.05625	-1.0
0.02	0.0575	-1.0
0.02	0.05875	-1.0
0.02	0.06	-1.0
0.02	0.06125	-1.0
0.02	0.0625	-1.0
0.02	0.06375	-1.0
0.02	0.065	-1.0
0.02	0.06625	-1.0
0.02	0.0675	-1.0
0.02	0.06875	-1.0
0.02	0.07	-1.0
0.02	0.07125	-1.0
0.02	0.0725	-1.0
0.02	0.07375	-1.0
0.02	0.075	-1.0
0.02	0.07625	-1.0
0.02	0.0775	-1.0
0.02	0.07875	-1.0
0.02	0.08	-1.0
0.02	0.08125	-1.0
0.02	0.0825	-1.0
0.02	0.08375	-1.0
0.02	0.085	-1.0
0.02	0.08625	-1.0
0.02	0.0875	-1.0
0.02	0.08875	-1.0
0.02	0.09	-1.0
0.02	0.09125	-1.0
0.02	0.0925	-1.0
0.02	0.09375	-1.0
0.02	0.095	-1.0
0.02	0.09625	-1.0
0.02	0.0975	-1.0
0.02	0.09875	-1.0
0.02	0.1	-1.0
0.02	0.10125	-1.0
0.02	0.1025	-1.0
0.02	0.10375	-1.0
0.02	0.105	-1.0
0.02	0.10625	-1.0
0.02	0.1075	-1.0
0.02	0.10875	-1.0
0.02	0.11	-1.0
0.02	0.11125	-1.0
0.02	0.1125	-1.0
0.02	0.11375	-1.0
0.02	0.115	-1.0
0.02	0.11625	-1.0
0.02	0.1175	-1.0
0.02	0.11875	-1.0
0.02	0.12	-1.0
0.02	0.12125	-1.0
0.02	0.1225	-1.0
0.02	0.12375	-1.0
0.02	0.125	-1.0
0.02	0.12625	-1.0
0.02	0.1275	-1.0
0.02	0.12875	-1.0
0.02	0.13	-1.0
0.02	0.13125	-1.0
0.02	0.1325	-1.0
0.02	0.13375	-1.0
0.02	0.135	-1.0
0.02	0.13625	-1.0
0.02	0.1375	-1.0
0.02	0.13875	-1.0
0.02	0.14	-1.0
0.02	0.14125	-1.0
0.02	0.1425	-1.0
0.02	0.14375	-1.0
0.02	0.145	-1.0
0.02	0.14625	-1.0
0.02	0.1475	-1.0
0.02	0.14875	-1.0
0.02	0.15	-1.0
0.02	0.15125	-1.0
0.02	0.1525	-1.0
0.02	0.15375	-1.0
0.02	0.155	-1.0
0.02	0.15625	-1.0
0.02	0.1575	-1.0
0.02	0.15875	-1.0
0.02	0.16	-1.0
0.02	0.16125	-1.0
0.02	0.1625	-1.0
0.02	0.16375	-1.0
0.02	0.165	-1.0
0.02	0.16625	-1.0
0.02	0.1675	-1.0
0.02	0.16875	-1.0
0.02	0.17	-1.0
0.02	0.17125	-1.0
0.02	0.1725	-1.0
0.02	0.17375	-1.0
0.02	0.175	-1.0
0.02	0.17625	-1.0
0.02	0.1775	-1.0
0.02	0.17875	-1.0
0.02	0.18	-1.0
0.02	0.18125	-1.0
0.02	0.1825	-1.0
0.02	0.18375	-1.0
0.02	0.185	-1.0
0.02	0.18625	-1.0
0.02	0.1875	-1.0
0.02	0.18875	-1.0
0.02	0.19	-1.0
0.02	0.19125	-1.0
0.02	0.1925	-1.0
0.02	0.19375	-1.0
0.02	0.195	-1.0
0.02	0.19625	-1.0
0.02	0.1975	-1.0
0.02	0.19875	-1.0
0.02	0.2	-1.0
0.02	0.20125	-1.0
0.02	0.2025	-1.0
0.02	0.20375	-1.0
0.02	0.205	-1.0
0.02	0.20625	-1.0
0.02	0.2075	-1.0
0.02	0.20875	-1.0
0.02	0.21	-1.0
0.02	0.21125	-1.0
0.02	0.2125	-1.0
0.02	0.21375	-1.0
0.02	0.215	-1.0
0.02	0.21625	-1.0
0.02	0.2175	-1.0
0.02	0.21875	-1.0
0.02	0.22	-1.0
0.02	0.22125	-1.0
0.02	0.2225	-1.0
0.02	0.22375	-1.0
0.02	0.225	-1.0
0.02	0.22625	-1.0
0.02	0.2275	-1.0
0.02	0.22875	-1.0
0.02	0.23	-1.0
0.02	0.23125	-1.0
0.02	0.2325	-1.0
0.02	0.23375	-1.0
0.02	0.235	-1.0
0.02	0.23625	-1.0
0.02	0.2375	-1.0
0.02	0.23875	-1.0
0.02	0.24	-1.0
0.02	0.24125	-1.0
0.02	0.2425	-1.0
0.02	0.24375	-1.0
0.02	0.245	-1.0
0.02	0.24625	-1.0
0.02	0.2475	-1.0
0.02	0.24875	-1.0
0.02	0.25	-1.0
0.03	0.00125	-1.0
0.03	0.0025	-1.0
0.03	0.00375	-1.0
0.03	0.005	-1.0
0.03	0.00625	-1.0
0.03	0.0075	-1.0
0.03	0.00875	-1.0
0.03	0.01	-1.0
0.03	0.01125	-1.0
0.03	0.0125	-1.0
0.03	0.01375	-1.0
0.03	0.015	-1.0
0.03	0.01625	-1.0
0.03	0.0175	-1.0
0.03	0.01875	-1.0
0.03	0.02	-1.0
0.03	0.02125	-1.0
0.03	0.0225	-1.0
0.03	0.02375	-1.0
0.03	0.025	-1.0
0.03	0.02625	-1.0
0.03	0.0275	-1.0
0.03	0.02875	-1.0
0.03	0.03	-1.0
0.03	0.03125	-1.0
0.03	0.0325	-1.0
0.03	0.03375	-1.0
0.03	0.035	-1.0
0.03	0.03625	-1.0
0.03	0.0375	-1.0
0.03	0.03875	-1.0
0.03	0.04	-1.0
0.03	0.04125	-1.0
0.03	0.0425	-1.0
0.03	0.04375	-1.0
0.03	0.045	-1.0
0.03	0.04625	-1.0
0.03	0.0475	-1.0
0.03	0.04875	-1.0
0.03	0.05	-1.0
0.03	0.05125	-1.0
0.03	0.0525	-1.0
0.03	0.05375	-1.0
0.03	0.055	-1.0
0.03	0.05625	-1.0
0.03	0.0575	-1.0
0.03	0.05875	-1.0
0.03	0.06	-1.0
0.03	0.06125	-1.0
0.03	0.0625	-1.0
0.03	0.06375	-1.0
0.03	0.065	-1.0
0.03	0.06625	-1.0
0.03	0.0675	-1.0
0.03	0.06875	-1.0
0.03	0.07	-1.0
0.03	0.07125	-1.0
0.03	0.0725	-1.0
0.03	0.07375	-1.0
0.03	0.075	-1.0
0.03	0.07625	-1.0
0.03	0.0775	-1.0
0.03	0.07875	-1.0
0.03	0.08	-1.0
0.03	0.08125	-1.0
0.03	0.0825	-1.0
0.03	0.08375	-1.0
0.03	0.085	-1.0
0.03	0.08625	-1.0
0.03	0.0875	-1.0
0.03	0.08875	-1.0
0.03	0.09	-1.0
0.03	0.09125	-1.0
0.03	0.0925	-1.0
0.03	0.09375	-1.0
0.03	0.095	-1.0
0.03	0.09625	-1.0
0.03	0.0975	-1.0
0.03	0.09875	-1.0
0.03	0.1	-1.0
0.03	0.10125	-1.0
0.03	0.1025	-1.0
0.03	0.10375	-1.0
0.03	0.105	-1.0
0.03	0.10625	-1.0
0.03	0.1075	-1.0
0.03	0.10875	-1.0
0.03	0.11	-1.0
0.03	0.11125	-1.0
0.03	0.1125	-1.0
0.03	0.11375	-1.0
0.03	0.115	-1.0
0.03	0.11625	-1.0
0.03	0.1175	-1.0
0.03	0.11875	-1.0
0.03	0.12	-1.0
0.03	0.12125	-1.0
0.03	0.1225	-1.0
0.03	0.12375	-1.0
0.03	0.125	-1.0
0.03	0.12625	-1.0
0.03	0.1275	-1.0
0.03	0.12875	-1.0
0.03	0.13	-1.0
0.03	0.13125	-1.0
0.03	0.1325	-1.0
0.03	0.13375	-1.0
0.03	0.135	-1.0
0.03	0.13625	-1.0
0.03	0.1375	-1.0
0.03	0.13875	-1.0
0.03	0.14	-1.0
0.03	0.14125	-1.0
0.03	0.1425	-1.0
0.03	0.14375	-1.0
0.03	0.145	-1.0
0.03	0.14625	-1.0
0.03	0.1475	-1.0
0.03	0.14875	-1.0
0.03	0.15	-1.0
0.03	0.15125	-1.0
0.03	0.1525	-1.0
0.03	0.15375	-1.0
0.03	0.155	-1.0
0.03	0.15625	-1.0
0.03	0.1575	-1.0
0.03	0.15875	-1.0
0.03	0.16	-1.0
0.03	0.16125	-1.0
0.03	0.1625	-1.0
0.03	0.16375	-1.0
0.03	0.165	-1.0
0.03	0.16625	-1.0
0.03	0.1675	-1.0
0.03	0.16875	-1.0
0.03	0.17	-1.0
0.03	0.17125	-1.0
0.03	0.1725	-1.0
0.03	0.17375	-1.0
0.03	0.175	-1.0
0.03	0.17625	-1.0
0.03	0.1775	-1.0
0.03	0.17875	-1.0
0.03	0.18	-1.0
0.03	0.18125	-1.0
0.03	0.1825	-1.0
0.03	0.18375	-1.0
0.03	0.185	-1.0
0.03	0.18625	-1.0
0.03	0.1875	-1.0
0.03	0.18875	-1.0
0.03	0.19	-1.0
0.03	0.19125	-1.0
0.03	0.1925	-1.0
0.03	0.19375	-1.0
0.03	0.195	-1.0
0.03	0.19625	-1.0
0.03	0.1975	-1.0
0.03	0.19875	-1.0
0.03	0.2	-1.0
0.03	0.20125	-1.0
0.03	0.2025	-1.0
0.03	0.20375	-1.0
0.03	0.205	-1.0
0.03	0.20625	-1.0
0.03	0.2075	-1.0
0.03	0.20875	-1.0
0.03	0.21	-1.0
0.03	0.21125	-1.0
0.03	0.2125	-1.0
0.03	0.21375	-1.0
0.03	0.215	-1.0
0.03	0.21625	-1.0
0.03	0.2175	-1.0
0.03	0.21875	-1.0
0.03	0.22	-1.0
0.03	0.22125	-1.0
0.03	0.2225	-1.0
0.03	0.22375	-1.0
0.03	0.225	-1.0
0.03	0.22625	-1.0
0.03	0.2275	-1.0
0.03	0.22875	-1.0
0.03	0.23	-1.0
0.03	0.23125	-1.0
0.03	0.2325	-1.0
0.03	0.23375	-1.0
0.03	0.235	-1.0
0.03	0.23625	-1.0
0.03	0.2375	-1.0
0.03	0.23875	-1.0
0.03	0.24	-1.0
0.03	0.24125	-1.0
0.03	0.2425	-1.0
0.03	0.24375	-1.0
0.03	0.245	-1.0
0.03	0.24625	-1.0
0.03	0.2475	-1.0
0.03	0.24875	-1.0
0.03	0.25	-1.0
0.04	0.00125	0.0003956485946712733
0.04	0.0025	0.0003120990786921209
0.04	0.00375	0.00022311669202939598
0.04	0.005	0.00012926712381734125
0.04	0.00625	3.107606097732918e-5
0.04	0.0075	-1.0
0.04	0.00875	-1.0
0.04	0.01	-1.0
0.04	0.01125	-1.0
0.04	0.0125	-1.0
0.04	0.01375	-1.0
0.04	0.015	-1.0
0.04	0.01625	-1.0
0.04	0.0175	-1.0
0.04	0.01875	-1.0
0.04	0.02	-1.0
0.04	0.02125	-1.0
0.04	0.0225	-1.0
0.04	0.02375	-1.0
0.04	0.025	-1.0
0.04	0.02625	-1.0
0.04	0.0275	-1.0
0.04	0.02875	-1.0
0.04	0.03	-1.0
0.04	0.03125	-1.0
0.04	0.0325	-1.0
0.04	0.03375	-1.0
0.04	0.035	-1.0
0.04	0.03625	-1.0
0.04	0.0375	-1.0
0.04	0.03875	-1.0
0.04	0.04	-1.0
0.04	0.04125	-1.0
0.04	0.0425	-1.0
0.04	0.04375	-1.0
0.04	0.045	-1.0
0.04	0.04625	-1.0
0.04	0.0475	-1.0
0.04	0.04875	-1.0
0.04	0.05	-1.0
0.04	0.05125	-1.0
0.04	0.0525	-1.0
0.04	0.05375	-1.0
0.04	0.055	-1.0
0.04	0.05625	-1.0
0.04	0.0575	-1.0
0.04	0.05875	-1.0
0.04	0.06	-1.0
0.04	0.06125	-1.0
0.04	0.0625	-1.0
0.04	0.06375	-1.0
0.04	0.065	-1.0
0.04	0.06625	-1.0
0.04	0.0675	-1.0
0.04	0.06875	-1.0
0.04	0.07	-1.0
0.04	0.07125	-1.0
0.04	0.0725	-1.0
0.04	0.07375	-1.0
0.04	0.075	-1.0
0.04	0.07625	-1.0
0.04	0.0775	-1.0
0.04	0.07875	-1.0
0.04	0.08	-1.0
0.04	0.08125	-1.0
0.04	0.0825	-1.0
0.04	0.08375	-1.0
0.04	0.085	-1.0
0.04	0.08625	-1.0
0.04	0.0875	-1.0
0.04	0.08875	-1.0
0.04	0.09	-1.0
0.04	0.09125	-1.0
0.04	0.0925	-1.0
0.04	0.09375	-1.0
0.04	0.095	-1.0
0.04	0.09625	-1.0
0.04	0.0975	-1.0
0.04	0.09875	-1.0
0.04	0.1	-1.0
0.04	0.10125	-1.0
0.04	0.1025	-1.0
0.04	0.10375	-1.0
0.04	0.105	-1.0
0.04	0.10625	-1.0
0.04	0.1075	-1.0
0.04	0.10875	-1.0
0.04	0.11	-1.0
0.04	0.11125	-1.0
0.04	0.1125	-1.0
0.04	0.11375	-1.0
0.04	0.115	-1.0
0.04	0.11625	-1.0
0.04	0.1175	-1.0
0.04	0.11875	-1.0
0.04	0.12	-1.0
0.04	0.12125	-1.0
0.04	0.1225	-1.0
0.04	0.12375	-1.0
0.04	0.125	-1.0
0.04	0.12625	-1.0
0.04	0.1275	-1.0
0.04	0.12875	-1.0
0.04	0.13	-1.0
0.04	0.13125	-1.0
0.04	0.1325	-1.0
0.04	0.13375	-1.0
0.04	0.135	-1.0
0.04	0.13625	-1.0
0.04	0.1375	-1.0
0.04	0.13875	-1.0
0.04	0.14	-1.0
0.04	0.14125	-1.0
0.04	0.1425	-1.0
0.04	0.14375	-1.0
0.04	0.145	-1.0
0.04	0.14625	-1.0
0.04	0.1475	-1.0
0.04	0.14875	-1.0
0.04	0.15	-1.0
0.04	0.15125	-1.0
0.04	0.1525	-1.0
0.04	0.15375	-1.0
0.04	0.155	-1.0
0.04	0.15625	-1.0
0.04	0.1575	-1.0
0.04	0.15875	-1.0
0.04	0.16	-1.0
0.04	0.16125	-1.0
0.04	0.1625	-1.0
0.04	0.16375	-1.0
0.04	0.165	-1.0
0.04	0.16625	-1.0
0.04	0.1675	-1.0
0.04	0.16875	-1.0
0.04	0.17	-1.0
0.04	0.17125	-1.0
0.04	0.1725	-1.0
0.04	0.17375	-1.0
0.04	0.175	-1.0
0.04	0.17625	-1.0
0.04	0.1775	-1.0
0.04	0.17875	-1.0
0.04	0.18	-1.0
0.04	0.18125	-1.0
0.04	0.1825	-1.0
0.04	0.18375	-1.0
0.04	0.185	-1.0
0.04	0.18625	-1.0
0.04	0.1875	-1.0
0.04	0.18875	-1.0
0.04	0.19	-1.0
0.04	0.19125	-1.0
0.04	0.1925	-1.0
0.04	0.19375	-1.0
0.04	0.195	-1.0
0.04	0.19625	-1.0
0.04	0.1975	-1.0
0.04	0.19875	-1.0
0.04	0.2	-1.0
0.04	0.20125	-1.0
0.04	0.2025	-1.0
0.04	0.20375	-1.0
0.04	0.205	-1.0
0.04	0.20625	-1.0
0.04	0.2075	-1.0
0.04	0.20875	-1.0
0.04	0.21	-1.0
0.04	0.21125	-1.0
0.04	0.2125	-1.0
0.04	0.21375	-1.0
0.04	0.215	-1.0
0.04	0.21625	-1.0
0.04	0.2175	-1.0
0.04	0.21875	-1.0
0.04	0.22	-1.0
0.04	0.22125	-1.0
0.04	0.2225	-1.0
0.04	0.22375	-1.0
0.04	0.225	-1.0
0.04	0.22625	-1.0
0.04	0.2275	-1.0
0.04	0.22875	-1.0
0.04	0.23	-1.0
0.04	0.23125	-1.0
0.04	0.2325	-1.0
0.04	0.23375	-1.0
0.04	0.235	-1.0
0.04	0.23625	-1.0
0.04	0.2375	-1.0
0.04	0.23875	-1.0
0.04	0.24	-1.0
0.04	0.24125	-1.0
0.04	0.2425	-1.0
0.04	0.24375	-1.0
0.04	0.245	-1.0
0.04	0.24625	-1.0
0.04	0.2475	-1.0
0.04	0.24875	-1.0
0.04	0.25	-1.0
0.05	0.00125	0.0007757275536489578
0.05	0.0025	0.0007109991781310643
0.05	0.00375	0.000641317199566133
0.05	0.005	0.0005670747233058883
0.05	0.00625	0.0004886500753855875
0.05	0.0075	0.00040640413258232605
0.05	0.00875	0.0003206782135331665
0.05	0.01	0.00023179909401721733
0.05	0.01125	0.0001400692576535543
0.05	0.0125	4.5782025560523705e-5
0.05	0.01375	-1.0
0.05	0.015	-1.0
0.05	0.01625	-1.0
0.05	0.0175	-1.0
0.05	0.01875	-1.0
0.05	0.02	-1.0
0.05	0.02125	-1.0
0.05	0.0225	-1.0
0.05	0.02375	-1.0
0.05	0.025	-1.0
0.05	0.02625	-1.0
0.05	0.0275	-1.0
0.05	0.02875	-1.0
0.05	0.03	-1.0
0.05	0.03125	-1.0
0.05	0.0325	-1.0
0.05	0.03375	-1.0
0.05	0.035	-1.0
0.05	0.03625	-1.0
0.05	0.0375	-1.0
0.05	0.03875	-1.0
0.05	0.04	-1.0
0.05	0.04125	-1.0
0.05	0.0425	-1.0
0.05	0.04375	-1.0
0.05	0.045	-1.0
0.05	0.04625	-1.0
0.05	0.0475	-1.0
0.05	0.04875	-1.0
0.05	0.05	-1.0
0.05	0.05125	-1.0
0.05	0.0525	-1.0
0.05	0.05375	-1.0
0.05	0.055	-1.0
0.05	0.05625	-1.0
0.05	0.0575	-1.0
0.05	0.05875	-1.0
0.05	0.06	-1.0
0.05	0.06125	-1.0
0.05	0.0625	-1.0
0.05	0.06375	-1.0
0.05	0.065	-1.0
0.05	0.06625	-1.0
0.05	0.0675	-1.0
0.05	0.06875	-1.0
0.05	0.07	-1.0
0.05	0.07125	-1.0
0.05	0.0725	-1.0
0.05	0.07375	-1.0
0.05	0.075	-1.0
0.05	0.07625	-1.0
0.05	0.0775	-1.0
0.05	0.07875	-1.0
0.05	0.08	-1.0
0.05	0.08125	-1.0
0.05	0.0825	-1.0
0.05	0.08375	-1.0
0.05	0.085	-1.0
0.05	0.08625	-1.0
0.05	0.0875	-1.0
0.05	0.08875	-1.0
0.05	0.09	-1.0
0.05	0.09125	-1.0
0.05	0.0925	-1.0
0.05	0.09375	-1.0
0.05	0.095	-1.0
0.05	0.09625	-1.0
0.05	0.0975	-1.0
0.05	0.09875	-1.0
0.05	0.1	-1.0
0.05	0.10125	-1.0
0.05	0.1025	-1.0
0.05	0.10375	-1.0
0.05	0.105	-1.0
0.05	0.10625	-1.0
0.05	0.1075	-1.0
0.05	0.10875	-1.0
0.05	0.11	-1.0
0.05	0.11125	-1.0
0.05	0.1125	-1.0
0.05	0.11375	-1.0
0.05	0.115	-1.0
0.05	0.11625	-1.0
0.05	0.1175	-1.0
0.05	0.11875	-1.0
0.05	0.12	-1.0
0.05	0.12125	-1.0
0.05	0.1225	-1.0
0.05	0.12375	-1.0
0.05	0.125	-1.0
0.05	0.12625	-1.0
0.05	0.1275	-1.0
0.05	0.12875	-1.0
0.05	0.13	-1.0
0.05	0.13125	-1.0
0.05	0.1325	-1.0
0.05	0.13375	-1.0
0.05	0.135	-1.0
0.05	0.13625	-1.0
0.05	0.1375	-1.0
0.05	0.13875	-1.0
0.05	0.14	-1.0
0.05	0.14125	-1.0
0.05	0.1425	-1.0
0.05	0.14375	-1.0
0.05	0.145	-1.0
0.05	0.14625	-1.0
0.05	0.1475	-1.0
0.05	0.14875	-1.0
0.05	0.15	-1.0
0.05	0.15125	-1.0
0.05	0.1525	-1.0
0.05	0.15375	-1.0
0.05	0.155	-1.0
0.05	0.15625	-1.0
0.05	0.1575	-1.0
0.05	0.15875	-1.0
0.05	0.16	-1.0
0.05	0.16125	-1.0
0.05	0.1625	-1.0
0.05	0.16375	-1.0
0.05	0.165	-1.0
0.05	0.16625	-1.0
0.05	0.1675	-1.0
0.05	0.16875	-1.0
0.05	0.17	-1.0
0.05	0.17125	-1.0
0.05	0.1725	-1.0
0.05	0.17375	-1.0
0.05	0.175	-1.0
0.05	0.17625	-1.0
0.05	0.1775	-1.0
0.05	0.17875	-1.0
0.05	0.18	-1.0
0.05	0.18125	-1.0
0.05	0.1825	-1.0
0.05	0.18375	-1.0
0.05	0.185	-1.0
0.05	0.18625	-1.0
0.05	0.1875	-1.0
0.05	0.18875	-1.0
0.05	0.19	-1.0
0.05	0.19125	-1.0
0.05	0.1925	-1.0
0.05	0.19375	-1.0
0.05	0.195	-1.0
0.05	0.19625	-1.0
0.05	0.1975	-1.0
0.05	0.19875	-1.0
0.05	0.2	-1.0
0.05	0.20125	-1.0
0.05	0.2025	-1.0
0.05	0.20375	-1.0
0.05	0.205	-1.0
0.05	0.20625	-1.0
0.05	0.2075	-1.0
0.05	0.20875	-1.0
0.05	0.21	-1.0
0.05	0.21125	-1.0
0.05	0.2125	-1.0
0.05	0.21375	-1.0
0.05	0.215	-1.0
0.05	0.21625	-1.0
0.05	0.2175	-1.0
0.05	0.21875	-1.0
0.05	0.22	-1.0
0.05	0.22125	-1.0
0.05	0.2225	-1.0
0.05	0.22375	-1.0
0.05	0.225	-1.0
0.05	0.22625	-1.0
0.05	0.2275	-1.0
0.05	0.22875	-1.0
0.05	0.23	-1.0
0.05	0.23125	-1.0
0.05	0.2325	-1.0
0.05	0.23375	-1.0
0.05	0.235	-1.0
0.05	0.23625	-1.0
0.05	0.2375	-1.0
0.05	0.23875	-1.0
0.05	0.24	-1.0
0.05	0.24125	-1.0
0.05	0.2425	-1.0
0.05	0.24375	-1.0
0.05	0.245	-1.0
0.05	0.24625	-1.0
0.05	0.2475	-1.0
0.05	0.24875	-1.0
0.05	0.25	-1.0
0.06	0.00125	0.0011197492124630723
0.06	0.0025	0.0010694713697108468
0.06	0.00375	0.0010146352411722912
0.06	0.005	0.0009555385114207114
0.06	0.00625	0.0008924619155997665
0.06	0.0075	0.0008256785002564228
0.06	0.00875	0.000755449868301302
0.06	0.01	0.0006820279658456412
0.06	0.01125	0.0006056506112106394
0.06	0.0125	0.0005265464901248383
0.06	0.01375	0.0004449325904180153
0.06	0.015	0.00036101631590055813
0.06	0.01625	0.0002749913644095518
0.06	0.0175	0.00018704455910669728
0.06	0.01875	9.734916430093582e-5
0.06	0.02	6.07063418316475e-6
0.06	0.02125	-1.0
0.06	0.0225	-1.0
0.06	0.02375	-1.0
0.06	0.025	-1.0
0.06	0.02625	-1.0
0.06	0.0275	-1.0
0.06	0.02875	-1.0
0.06	0.03	-1.0
0.06	0.03125	-1.0
0.06	0.0325	-1.0
0.06	0.03375	-1.0
0.06	0.035	-1.0
0.06	0.03625	-1.0
0.06	0.0375	-1.0
0.06	0.03875	-1.0
0.06	0.04	-1.0
0.06	0.04125	-1.0
0.06	0.0425	-1.0
0.06	0.04375	-1.0
0.06	0.045	-1.0
0.06	0.04625	-1.0
0.06	0.0475	-1.0
0.06	0.04875	-1.0
0.06	0.05	-1.0
0.06	0.05125	-1.0
0.06	0.0525	-1.0
0.06	0.05375	-1.0
0.06	0.055	-1.0
0.06	0.05625	-1.0
0.06	0.0575	-1.0
0.06	0.05875	-1.0
0.06	0.06	-1.0
0.06	0.06125	-1.0
0.06	0.0625	-1.0
0.06	0.06375	-1.0
0.06	0.065	-1.0
0.06	0.06625	-1.0
0.06	0.0675	-1.0
0.06	0.06875	-1.0
0.06	0.07	-1.0
0.06	0.07125	-1.0
0.06	0.0725	-1.0
0.06	0.07375	-1.0
0.06	0.075	-1.0
0.06	0.07625	-1.0
0.06	0.0775	-1.0
0.06	0.07875	-1.0
0.06	0.08	-1.0
0.06	0.08125	-1.0
0.06	0.0825	-1.0
0.06	0.08375	-1.0
0.06	0.085	-1.0
0.06	0.08625	-1.0
0.06	0.0875	-1.0
0.06	0.08875	-1.0
0.06	0.09	-1.0
0.06	0.09125	-1.0
0.06	0.0925	-1.0
0.06	0.09375	-1.0
0.06	0.095	-1.0
0.06	0.09625	-1.0
0.06	0.0975	-1.0
0.06	0.09875	-1.0
0.06	0.1	-1.0
0.06	0.10125	-1.0
0.06	0.1025	-1.0
0.06	0.10375	-1.0
0.06	0.105	-1.0
0.06	0.10625	-1.0
0.06	0.1075	-1.0
0.06	0.10875	-1.0
0.06	0.11	-1.0
0.06	0.11125	-1.0
0.06	0.1125	-1.0
0.06	0.11375	-1.0
0.06	0.115	-1.0
0.06	0.11625	-1.0
0.06	0.1175	-1.0
0.06	0.11875	-1.0
0.06	0.12	-1.0
0.06	0.12125	-1.0
0.06	0.1225	-1.0
0.06	0.12375	-1.0
0.06	0.125	-1.0
0.06	0.12625	-1.0
0.06	0.1275	-1.0
0.06	0.12875	-1.0
0.06	0.13	-1.0
0.06	0.13125	-1.0
0.06	0.1325	-1.0
0.06	0.13375	-1.0
0.06	0.135	-1.0
0.06	0.13625	-1.0
0.06	0.1375	-1.0
0.06	0.13875	-1.0
0.06	0.14	-1.0
0.06	0.14125	-1.0
0.06	0.1425	-1.0
0.06	0.14375	-1.0
0.06	0.145	-1.0
0.06	0.14625	-1.0
0.06	0.1475	-1.0
0.06	0.14875	-1.0
0.06	0.15	-1.0
0.06	0.15125	-1.0
0.06	0.1525	-1.0
0.06	0.15375	-1.0
0.06	0.155	-1.0
0.06	0.15625	-1.0
0.06	0.1575	-1.0
0.06	0.15875	-1.0
0.06	0.16	-1.0
0.06	0.16125	-1.0
0.06	0.1625	-1.0
0.06	0.16375	-1.0
0.06	0.165	-1.0
0.06	0.16625	-1.0
0.06	0.1675	-1.0
0.06	0.16875	-1.0
0.06	0.17	-1.0
0.06	0.17125	-1.0
0.06	0.1725	-1.0
0.06	0.17375	-1.0
0.06	0.175	-1.0
0.06	0.17625	-1.0
0.06	0.1775	-1.0
0.06	0.17875	-1.0
0.06	0.18	-1.0
0.06	0.18125	-1.0
0.06	0.1825	-1.0
0.06	0.18375	-1.0
0.06	0.185	-1.0
0.06	0.18625	-1.0
0.06	0.1875	-1.0
0.06	0.18875	-1.0
0.06	0.19	-1.0
0.06	0.19125	-1.0
0.06	0.1925	-1.0
0.06	0.19375	-1.0
0.06	0.195	-1.0
0.06	0.19625	-1.0
0.06	0.1975	-1.0
0.06	0.19875	-1.0
0.06	0.2	-1.0
0.06	0.20125	-1.0
0.06	0.2025	-1.0
0.06	0.20375	-1.0
0.06	0.205	-1.0
0.06	0.20625	-1.0
0.06	0.2075	-1.0
0.06	0.20875	-1.0
0.06	0.21	-1.0
0.06	0.21125	-1.0
0.06	0.2125	-1.0
0.06	0.21375	-1.0
0.06	0.215	-1.0
0.06	0.21625	-1.0
0.06	0.2175	-1.0
0.06	0.21875	-1.0
0.06	0.22	-1.0
0.06	0.22125	-1.0
0.06	0.2225	-1.0
0.06	0.22375	-1.0
0.06	0.225	-1.0
0.06	0.22625	-1.0
0.06	0.2275	-1.0
0.06	0.22875	-1.0
0.06	0.23	-1.0
0.06	0.23125	-1.0
0.06	0.2325	-1.0
0.06	0.23375	-1.0
0.06	0.235	-1.0
0.06	0.23625	-1.0
0.06	0.2375	-1.0
0.06	0.23875	-1.0
0.06	0.24	-1.0
0.06	0.24125	-1.0
0.06	0.2425	-1.0
0.06	0.24375	-1.0
0.06	0.245	-1.0
0.06	0.24625	-1.0
0.06	0.2475	-1.0
0.06	0.24875	-1.0
0.06	0.25	-1.0
0.07	0.00125	0.0014305077534877964
0.07	0.0025	0.0013915333844878356
0.07	0.00375	0.0013483318629296213
0.07	0.005	0.0013011276523903614
0.07	0.00625	0.0012501434309721026
0.07	0.0075	0.001195592056892391
0.07	0.00875	0.0011376795102838505
0.07	0.01	0.0010766053669018648
0.07	0.01125	0.0010125605266090771
0.07	0.0125	0.0009457304082731529
0.07	0.01375	0.0008762906752403611
0.07	0.015	0.0008044105912972908
0.07	0.01625	0.0007302527286099346
0.07	0.0175	0.0006539707561187156
0.07	0.01875	0.0005757124818175951
0.07	0.02	0.000495618240426653
0.07	0.02125	0.0004138214016759787
0.07	0.0225	0.0003304489604729735
0.07	0.02375	0.00024562077688069427
0.07	0.025	0.0001594511052770594
0.07	0.02625	7.204762890017499e-5
0.07	0.0275	-1.0
0.07	0.02875	-1.0
0.07	0.03	-1.0
0.07	0.03125	-1.0
0.07	0.0325	-1.0
0.07	0.03375	-1.0
0.07	0.035	-1.0
0.07	0.03625	-1.0
0.07	0.0375	-1.0
0.07	0.03875	-1.0
0.07	0.04	-1.0
0.07	0.04125	-1.0
0.07	0.0425	-1.0
0.07	0.04375	-1.0
0.07	0.045	-1.0
0.07	0.04625	-1.0
0.07	0.0475	-1.0
0.07	0.04875	-1.0
0.07	0.05	-1.0
0.07	0.05125	-1.0
0.07	0.0525	-1.0
0.07	0.05375	-1.0
0.07	0.055	-1.0
0.07	0.05625	-1.0
0.07	0.0575	-1.0
0.07	0.05875	-1.0
0.07	0.06	-1.0
0.07	0.06125	-1.0
0.07	0.0625	-1.0
0.07	0.06375	-1.0
0.07	0.065	-1.0
0.07	0.06625	-1.0
0.07	0.0675	-1.0
0.07	0.06875	-1.0
0.07	0.07	-1.0
0.07	0.07125	-1.0
0.07	0.0725	-1.0
0.07	0.07375	-1.0
0.07	0.075	-1.0
0.07	0.07625	-1.0
0.07	0.0775	-1.0
0.07	0.07875	-1.0
0.07	0.08	-1.0
0.07	0.08125	-1.0
0.07	0.0825	-1.0
0.07	0.08375	-1.0
0.07	0.085	-1.0
0.07	0.08625	-1.0
0.07	0.0875	-1.0
0.07	0.08875	-1.0
0.07	0.09	-1.0
0.07	0.09125	-1.0
0.07	0.0925	-1.0
0.07	0.09375	-1.0
0.07	0.095	-1.0
0.07	0.09625	-1.0
0.07	0.0975	-1.0
0.07	0.09875	-1.0
0.07	0.1	-1.0
0.07	0.10125	-1.0
0.07	0.1025	-1.0
0.07	0.10375	-1.0
0.07	0.105	-1.0
0.07	0.10625	-1.0
0.07	0.1075	-1.0
0.07	0.10875	-1.0
0.07	0.11	-1.0
0.07	0.11125	-1.0
0.07	0.1125	-1.0
0.07	0.11375	-1.0
0.07	0.115	-1.0
0.07	0.11625	-1.0
0.07	0.1175	-1.0
0.07	0.11875	-1.0
0.07	0.12	-1.0
0.07	0.12125	-1.0
0.07	0.1225	-1.0
0.07	0.12375	-1.0
0.07	0.125	-1.0
0.07	0.12625	-1.0
0.07	0.1275	-1.0
0.07	0.12875	-1.0
0.07	0.13	-1.0
0.07	0.13125	-1.0
0.07	0.1325	-1.0
0.07	0.13375	-1.0
0.07	0.135	-1.0
0.07	0.13625	-1.0
0.07	0.1375	-1.0
0.07	0.13875	-1.0
0.07	0.14	-1.0
0.07	0.14125	-1.0
0.07	0.1425	-1.0
0.07	0.14375	-1.0
0.07	0.145	-1.0
0.07	0.14625	-1.0
0.07	0.1475	-1.0
0.07	0.14875	-1.0
0.07	0.15	-1.0
0.07	0.15125	-1.0
0.07	0.1525	-1.0
0.07	0.15375	-1.0
0.07	0.155	-1.0
0.07	0.15625	-1.0
0.07	0.1575	-1.0
0.07	0.15875	-1.0
0.07	0.16	-1.0
0.07	0.16125	-1.0
0.07	0.1625	-1.0
0.07	0.16375	-1.0
0.07	0.165	-1.0
0.07	0.16625	-1.0
0.07	0.1675	-1.0
0.07	0.16875	-1.0
0.07	0.17	-1.0
0.07	0.17125	-1.0
0.07	0.1725	-1.0
0.07	0.17375	-1.0
0.07	0.175	-1.0
0.07	0.17625	-1.0
0.07	0.1775	-1.0
0.07	0.17875	-1.0
0.07	0.18	-1.0
0.07	0.18125	-1.0
0.07	0.1825	-1.0
0.07	0.18375	-1.0
0.07	0.185	-1.0
0.07	0.18625	-1.0
0.07	0.1875	-1.0
0.07	0.18875	-1.0
0.07	0.19	-1.0
0.07	0.19125	-1.0
0.07	0.1925	-1.0
0.07	0.19375	-1.0
0.07	0.195	-1.0
0.07	0.19625	-1.0
0.07	0.1975	-1.0
0.07	0.19875	-1.0
0.07	0.2	-1.0
0.07	0.20125	-1.0
0.07	0.2025	-1.0
0.07	0.20375	-1.0
0.07	0.205	-1.0
0.07	0.20625	-1.0
0.07	0.2075	-1.0
0.07	0.20875	-1.0
0.07	0.21	-1.0
0.07	0.21125	-1.0
0.07	0.2125	-1.0
0.07	0.21375	-1.0
0.07	0.215	-1.0
0.07	0.21625	-1.0
0.07	0.2175	-1.0
0.07	0.21875	-1.0
0.07	0.22	-1.0
0.07	0.22125	-1.0
0.07	0.2225	-1.0
0.07	0.22375	-1.0
0.07	0.225	-1.0
0.07	0.22625	-1.0
0.07	0.2275	-1.0
0.07	0.22875	-1.0
0.07	0.23	-1.0
0.07	0.23125	-1.0
0.07	0.2325	-1.0
0.07	0.23375	-1.0
0.07	0.235	-1.0
0.07	0.23625	-1.0
0.07	0.2375	-1.0
0.07	0.23875	-1.0
0.07	0.24	-1.0
0.07	0.24125	-1.0
0.07	0.2425	-1.0
0.07	0.24375	-1.0
0.07	0.245	-1.0
0.07	0.24625	-1.0
0.07	0.2475	-1.0
0.07	0.24875	-1.0
0.07	0.25	-1.0
0.08	0.00125	0.0017087439832569233
0.08	0.0025	0.0016786113833169786
0.08	0.00375	0.0016445214384751873
0.08	0.005	0.0016066524641742475
0.08	0.00625	0.001565181395824153
0.08	0.0075	0.0015202802573225135
0.08	0.00875	0.0014721174137142538
0.08	0.01	0.001420853733693437
0.08	0.01125	0.0013666468547073795
0.08	0.0125	0.0013096478985316893
0.08	0.01375	0.0012500052129201808
0.08	0.015	0.0011878592765789807
0.08	0.01625	0.0011233443629340234
0.08	0.0175	0.0010565939503516984
0.08	0.01875	0.0009877319829224068
0.08	0.02	0.0009168800939729041
0.08	0.02125	0.0008441529245432353
0.08	0.0225	0.0007696619809594128
0.08	0.02375	0.0006935135795257049
0.08	0.025	0.0006158086852722895
0.08	0.02625	0.0005366444973841805
0.08	0.0275	0.0004561133292705891
0.08	0.02875	0.00037430445923555713
0.08	0.03	0.00029130219591621956
0.08	0.03125	0.00020718735759551847
0.08	0.0325	0.00012203705343404907
0.08	0.03375	3.592501926412729e-5
0.08	0.035	-1.0
0.08	0.03625	-1.0
0.08	0.0375	-1.0
0.08	0.03875	-1.0
0.08	0.04	-1.0
0.08	0.04125	-1.0
0.08	0.0425	-1.0
0.08	0.04375	-1.0
0.08	0.045	-1.0
0.08	0.04625	-1.0
0.08	0.0475	-1.0
0.08	0.04875	-1.0
0.08	0.05	-1.0
0.08	0.05125	-1.0
0.08	0.0525	-1.0
0.08	0.05375	-1.0
0.08	0.055	-1.0
0.08	0.05625	-1.0
0.08	0.0575	-1.0
0.08	0.05875	-1.0
0.08	0.06	-1.0
0.08	0.06125	-1.0
0.08	0.0625	-1.0
0.08	0.06375	-1.0
0.08	0.065	-1.0
0.08	0.06625	-1.0
0.08	0.0675	-1.0
0.08	0.06875	-1.0
0.08	0.07	-1.0
0.08	0.07125	-1.0
0.08	0.0725	-1.0
0.08	0.07375	-1.0
0.08	0.075	-1.0
0.08	0.07625	-1.0
0.08	0.0775	-1.0
0.08	0.07875	-1.0
0.08	0.08	-1.0
0.08	0.08125	-1.0
0.08	0.0825	-1.0
0.08	0.08375	-1.0
0.08	0.085	-1.0
0.08	0.08625	-1.0
0.08	0.0875	-1.0
0.08	0.08875	-1.0
0.08	0.09	-1.0
0.08	0.09125	-1.0
0.08	0.0925	-1.0
0.08	0.09375	-1.0
0.08	0.095	-1.0
0.08	0.09625	-1.0
0.08	0.0975	-1.0
0.08	0.09875	-1.0
0.08	0.1	-1.0
0.08	0.10125	-1.0
0.08	0.1025	-1.0
0.08	0.10375	-1.0
0.08	0.105	-1.0
0.08	0.10625	-1.0
0.08	0.1075	-1.0
0.08	0.10875	-1.0
0.08	0.11	-1.0
0.08	0.11125	-1.0
0.08	0.1125	-1.0
0.08	0.11375	-1.0
0.08	0.115	-1.0
0.08	0.11625	-1.0
0.08	0.1175	-1.0
0.08	0.11875	-1.0
0.08	0.12	-1.0
0.08	0.12125	-1.0
0.08	0.1225	-1.0
0.08	0.12375	-1.0
0.08	0.125	-1.0
0.08	0.12625	-1.0
0.08	0.1275	-1.0
0.08	0.12875	-1.0
0.08	0.13	-1.0
0.08	0.13125	-1.0
0.08	0.1325	-1.0
0.08	0.13375	-1.0
0.08	0.135	-1.0
0.08	0.13625	-1.0
0.08	0.1375	-1.0
0.08	0.13875	-1.0
0.08	0.14	-1.0
0.08	0.14125	-1.0
0.08	0.1425	-1.0
0.08	0.14375	-1.0
0.08	0.145	-1.0
0.08	0.14625	-1.0
0.08	0.1475	-1.0
0.08	0.14875	-1.0
0.08	0.15	-1.0
0.08	0.15125	-1.0
0.08	0.1525	-1.0
0.08	0.15375	-1.0
0.08	0.155	-1.0
0.08	0.15625	-1.0
0.08	0.1575	-1.0
0.08	0.15875	-1.0
0.08	0.16	-1.0
0.08	0.16125	-1.0
0.08	0.1625	-1.0
0.08	0.16375	-1.0
0.08	0.165	-1.0
0.08	0.16625	-1.0
0.08	0.1675	-1.0
0.08	0.16875	-1.0
0.08	0.17	-1.0
0.08	0.17125	-1.0
0.08	0.1725	-1.0
0.08	0.17375	-1.0
0.08	0.175	-1.0
0.08	0.17625	-1.0
0.08	0.1775	-1.0
0.08	0.17875	-1.0
0.08	0.18	-1.0
0.08	0.18125	-1.0
0.08	0.1825	-1.0
0.08	0.18375	-1.0
0.08	0.185	-1.0
0.08	0.18625	-1.0
0.08	0.1875	-1.0
0.08	0.18875	-1.0
0.08	0.19	-1.0
0.08	0.19125	-1.0
0.08	0.1925	-1.0
0.08	0.19375	-1.0
0.08	0.195	-1.0
0.08	0.19625	-1.0
0.08	0.1975	-1.0
0.08	0.19875	-1.0
0.08	0.2	-1.0
0.08	0.20125	-1.0
0.08	0.2025	-1.0
0.08	0.20375	-1.0
0.08	0.205	-1.0
0.08	0.20625	-1.0
0.08	0.2075	-1.0
0.08	0.20875	-1.0
0.08	0.21	-1.0
0.08	0.21125	-1.0
0.08	0.2125	-1.0
0.08	0.21375	-1.0
0.08	0.215	-1.0
0.08	0.21625	-1.0
0.08	0.2175	-1.0
0.08	0.21875	-1.0
0.08	0.22	-1.0
0.08	0.22125	-1.0
0.08	0.2225	-1.0
0.08	0.22375	-1.0
0.08	0.225	-1.0
0.08	0.22625	-1.0
0.08	0.2275	-1.0
0.08	0.22875	-1.0
0.08	0.23	-1.0
0.08	0.23125	-1.0
0.08	0.2325	-1.0
0.08	0.23375	-1.0
0.08	0.235	-1.0
0.08	0.23625	-1.0
0.08	0.2375	-1.0
0.08	0.23875	-1.0
0.08	0.24	-1.0
0.08	0.24125	-1.0
0.08	0.2425	-1.0
0.08	0.24375	-1.0
0.08	0.245	-1.0
0.08	0.24625	-1.0
0.08	0.2475	-1.0
0.08	0.24875	-1.0
0.08	0.25	-1.0
0.09	0.00125	0.0019540391442353392
0.09	0.0025	0.0019307027454647338
0.09	0.00375	0.0019036284922542136
0.09	0.005	0.0018729619225931371
0.09	0.00625	0.0018388499425700316
0.09	0.0075	0.0018014340270224056
0.09	0.00875	0.0017608534393085949
0.09	0.01	0.0017172428465881539
0.09	0.01125	0.0016707347425131778
0.09	0.0125	0.0016214578542720517
0.09	0.01375	0.001569535739299348
0.09	0.015	0.0015150895997105827
0.09	0.01625	0.0014582359631424345
0.09	0.0175	0.001399087898921683
0.09	0.01875	0.0013377552682284632
0.09	0.02	0.0012743433962529311
0.09	0.02125	0.0012089541833335082
0.09	0.0225	0.0011416864583615855
0.09	0.02375	0.0010726362148032118
0.09	0.025	0.0010018943864406864
0.09	0.02625	0.0009295507037801915
0.09	0.0275	0.0008556907829605336
0.09	0.02875	0.0007803978997709298
0.09	0.03	0.0007037527815972201
0.09	0.03125	0.0006258334192026032
0.09	0.0325	0.0005467142806831713
0.09	0.03375	0.00046647166152533385
0.09	0.035	0.0003851743580680039
0.09	0.03625	0.0003028941453719017
0.09	0.0375	0.0002196992113709577
0.09	0.03875	0.0001356569078791645
0.09	0.04	5.083376861091644e-5
0.09	0.04125	-1.0
0.09	0.0425	-1.0
0.09	0.04375	-1.0
0.09	0.045	-1.0
0.09	0.04625	-1.0
0.09	0.0475	-1.0
0.09	0.04875	-1.0