Variables="alpha" "beta" "omega"
Zone T="R=500s" I=400 J=100
0.01	0.001	0.00029883473147968975
0.01	0.002	0.00046888314115378535
0.01	0.003	0.0006404125540417562
0.01	0.004	0.000719070290188184
0.01	0.005	0.0007521331324761682
0.01	0.006	0.0007585431564790022
0.01	0.007	0.0007482029093052481
0.01	0.008	0.0007270790689594771
0.01	0.009	0.0006990227264300123
0.01	0.01	0.000666602362623273
0.01	0.011	0.0006315695526736292
0.01	0.012	0.0005950630328487683
0.01	0.013	0.0005580889504149071
0.01	0.014	0.0005206739015390292
0.01	0.015	0.0004831990844095517
0.01	0.016	0.0004486880654528552
0.01	0.017	0.00041456707364084566
0.01	0.018	0.00037390945639681185
0.01	0.019	0.00032777330698294694
0.01	0.02	0.00030303723158803454
0.01	0.021	0.00029133354874159986
0.01	0.022	0.00027424952438471985
0.01	0.023	0.00024754728879353486
0.01	0.024	0.0002078367354362065
0.01	0.025	0.00014622337991507977
0.01	0.026	0.0
0.01	0.027	0.0
0.01	0.028	0.0
0.01	0.029	0.0
0.01	0.03	0.0
0.01	0.031	0.0
0.01	0.032	0.0
0.01	0.033	0.0
0.01	0.034	0.0
0.01	0.035	0.0
0.01	0.036	0.0
0.01	0.037	0.0
0.01	0.038	0.0
0.01	0.039	0.0
0.01	0.04	0.0
0.01	0.041	0.0
0.01	0.042	0.0
0.01	0.043	0.0
0.01	0.044	0.0
0.01	0.045	0.0
0.01	0.046	0.0
0.01	0.047	0.0
0.01	0.048	0.0
0.01	0.049	0.0
0.01	0.05	0.0
0.01	0.051	0.0
0.01	0.052	0.0
0.01	0.053	0.0
0.01	0.054	0.0
0.01	0.055	0.0
0.01	0.056	0.0
0.01	0.057	0.0
0.01	0.058	0.0
0.01	0.059	0.0
0.01	0.06	0.0
0.01	0.061	0.0
0.01	0.062	0.0
0.01	0.063	0.0
0.01	0.064	0.0
0.01	0.065	0.0
0.01	0.066	0.0
0.01	0.067	0.0
0.01	0.068	0.0
0.01	0.069	0.0
0.01	0.07	0.0
0.01	0.071	0.0
0.01	0.072	0.0
0.01	0.073	0.0
0.01	0.074	0.0
0.01	0.075	0.0
0.01	0.076	0.0
0.01	0.077	0.0
0.01	0.078	0.0
0.01	0.079	0.0
0.01	0.08	0.0
0.01	0.081	0.0
0.01	0.082	0.0
0.01	0.083	0.0
0.01	0.084	0.0
0.01	0.085	0.0
0.01	0.086	0.0
0.01	0.087	0.0
0.01	0.088	0.0
0.01	0.089	0.0
0.01	0.09	0.0
0.01	0.091	0.0
0.01	0.092	0.0
0.01	0.093	0.0
0.01	0.094	0.0
0.01	0.095	0.0
0.01	0.096	0.0
0.01	0.097	0.0
0.01	0.098	0.0
0.01	0.099	0.0
0.01	0.1	0.0
0.01	0.101	0.0
0.01	0.102	0.0
0.01	0.103	0.0
0.01	0.104	0.0
0.01	0.105	0.0
0.01	0.106	0.0
0.01	0.107	0.0
0.01	0.108	0.0
0.01	0.109	0.0
0.01	0.11	0.0
0.01	0.111	0.0
0.01	0.112	0.0
0.01	0.113	0.0
0.01	0.114	0.0
0.01	0.115	0.0
0.01	0.116	0.0
0.01	0.117	0.0
0.01	0.118	0.0
0.01	0.119	0.0
0.01	0.12	0.0
0.01	0.121	0.0
0.01	0.122	0.0
0.01	0.123	0.0
0.01	0.124	0.0
0.01	0.125	0.0
0.01	0.126	0.0
0.01	0.127	0.0
0.01	0.128	0.0
0.01	0.129	0.0
0.01	0.13	0.0
0.01	0.131	0.0
0.01	0.132	0.0
0.01	0.133	0.0
0.01	0.134	0.0
0.01	0.135	0.0
0.01	0.136	0.0
0.01	0.137	0.0
0.01	0.138	0.0
0.01	0.139	0.0
0.01	0.14	0.0
0.01	0.141	0.0
0.01	0.142	0.0
0.01	0.143	0.0
0.01	0.144	0.0
0.01	0.145	0.0
0.01	0.146	0.0
0.01	0.147	0.0
0.01	0.148	0.0
0.01	0.149	0.0
0.01	0.15	0.0
0.01	0.151	0.0
0.01	0.152	0.0
0.01	0.153	0.0
0.01	0.154	0.0
0.01	0.155	0.0
0.01	0.156	0.0
0.01	0.157	0.0
0.01	0.158	0.0
0.01	0.159	0.0
0.01	0.16	0.0
0.01	0.161	0.0
0.01	0.162	0.0
0.01	0.163	0.0
0.01	0.164	0.0
0.01	0.165	0.0
0.01	0.166	0.0
0.01	0.167	0.0
0.01	0.168	0.0
0.01	0.169	0.0
0.01	0.17	0.0
0.01	0.171	0.0
0.01	0.172	0.0
0.01	0.173	0.0
0.01	0.174	0.0
0.01	0.175	0.0
0.01	0.176	0.0
0.01	0.177	0.0
0.01	0.178	0.0
0.01	0.179	0.0
0.01	0.18	0.0
0.01	0.181	0.0
0.01	0.182	0.0
0.01	0.183	0.0
0.01	0.184	0.0
0.01	0.185	0.0
0.01	0.186	0.0
0.01	0.187	0.0
0.01	0.188	0.0
0.01	0.189	0.0
0.01	0.19	0.0
0.01	0.191	0.0
0.01	0.192	0.0
0.01	0.193	0.0
0.01	0.194	0.0
0.01	0.195	0.0
0.01	0.196	0.0
0.01	0.197	0.0
0.01	0.198	0.0
0.01	0.199	0.0
0.01	0.2	0.0
0.01	0.201	0.0
0.01	0.202	0.0
0.01	0.203	0.0
0.01	0.204	0.0
0.01	0.205	0.0
0.01	0.206	0.0
0.01	0.207	0.0
0.01	0.208	0.0
0.01	0.209	0.0
0.01	0.21	0.0
0.01	0.211	0.0
0.01	0.212	0.0
0.01	0.213	0.0
0.01	0.214	0.0
0.01	0.215	0.0
0.01	0.216	0.0
0.01	0.217	0.0
0.01	0.218	0.0
0.01	0.219	0.0
0.01	0.22	0.0
0.01	0.221	0.0
0.01	0.222	0.0
0.01	0.223	0.0
0.01	0.224	0.0
0.01	0.225	0.0
0.01	0.226	0.0
0.01	0.227	0.0
0.01	0.228	0.0
0.01	0.229	0.0
0.01	0.23	0.0
0.01	0.231	0.0
0.01	0.232	0.0
0.01	0.233	0.0
0.01	0.234	0.0
0.01	0.235	0.0
0.01	0.236	0.0
0.01	0.237	0.0
0.01	0.238	0.0
0.01	0.239	0.0
0.01	0.24	0.0
0.01	0.241	0.0
0.01	0.242	0.0
0.01	0.243	0.0
0.01	0.244	0.0
0.01	0.245	0.0
0.01	0.246	0.0
0.01	0.247	0.0
0.01	0.248	0.0
0.01	0.249	0.0
0.01	0.25	0.0
0.01	0.251	0.0
0.01	0.252	0.0
0.01	0.253	0.0
0.01	0.254	0.0
0.01	0.255	0.0
0.01	0.256	0.0
0.01	0.257	0.0
0.01	0.258	0.0
0.01	0.259	0.0
0.01	0.26	0.0
0.01	0.261	0.0
0.01	0.262	0.0
0.01	0.263	0.0
0.01	0.264	0.0
0.01	0.265	0.0
0.01	0.266	0.0
0.01	0.267	0.0
0.01	0.268	0.0
0.01	0.269	0.0
0.01	0.27	0.0
0.01	0.271	0.0
0.01	0.272	0.0
0.01	0.273	0.0
0.01	0.274	0.0
0.01	0.275	0.0
0.01	0.276	0.0
0.01	0.277	0.0
0.01	0.278	0.0
0.01	0.279	0.0
0.01	0.28	0.0
0.01	0.281	0.0
0.01	0.282	0.0
0.01	0.283	0.0
0.01	0.284	0.0
0.01	0.285	0.0
0.01	0.286	0.0
0.01	0.287	0.0
0.01	0.288	0.0
0.01	0.289	0.0
0.01	0.29	0.0
0.01	0.291	0.0
0.01	0.292	0.0
0.01	0.293	0.0
0.01	0.294	0.0
0.01	0.295	0.0
0.01	0.296	0.0
0.01	0.297	0.0
0.01	0.298	0.0
0.01	0.299	0.0
0.01	0.3	0.0
0.01	0.301	0.0
0.01	0.302	0.0
0.01	0.303	0.0
0.01	0.304	0.0
0.01	0.305	0.0
0.01	0.306	0.0
0.01	0.307	0.0
0.01	0.308	0.0
0.01	0.309	0.0
0.01	0.31	0.0
0.01	0.311	0.0
0.01	0.312	0.0
0.01	0.313	0.0
0.01	0.314	0.0
0.01	0.315	0.0
0.01	0.316	0.0
0.01	0.317	0.0
0.01	0.318	0.0
0.01	0.319	0.0
0.01	0.32	0.0
0.01	0.321	0.0
0.01	0.322	0.0
0.01	0.323	0.0
0.01	0.324	0.0
0.01	0.325	0.0
0.01	0.326	0.0
0.01	0.327	0.0
0.01	0.328	0.0
0.01	0.329	0.0
0.01	0.33	0.0
0.01	0.331	0.0
0.01	0.332	0.0
0.01	0.333	0.0
0.01	0.334	0.0
0.01	0.335	0.0
0.01	0.336	0.0
0.01	0.337	0.0
0.01	0.338	0.0
0.01	0.339	0.0
0.01	0.34	0.0
0.01	0.341	0.0
0.01	0.342	0.0
0.01	0.343	0.0
0.01	0.344	0.0
0.01	0.345	0.0
0.01	0.346	0.0
0.01	0.347	0.0
0.01	0.348	0.0
0.01	0.349	0.0
0.01	0.35	0.0
0.01	0.351	0.0
0.01	0.352	0.0
0.01	0.353	0.0
0.01	0.354	0.0
0.01	0.355	0.0
0.01	0.356	0.0
0.01	0.357	0.0
0.01	0.358	0.0
0.01	0.359	0.0
0.01	0.36	0.0
0.01	0.361	0.0
0.01	0.362	0.0
0.01	0.363	0.0
0.01	0.364	0.0
0.01	0.365	0.0
0.01	0.366	0.0
0.01	0.367	0.0
0.01	0.368	0.0
0.01	0.369	0.0
0.01	0.37	0.0
0.01	0.371	0.0
0.01	0.372	0.0
0.01	0.373	0.0
0.01	0.374	0.0
0.01	0.375	0.0
0.01	0.376	0.0
0.01	0.377	0.0
0.01	0.378	0.0
0.01	0.379	0.0
0.01	0.38	0.0
0.01	0.381	0.0
0.01	0.382	0.0
0.01	0.383	0.0
0.01	0.384	0.0
0.01	0.385	0.0
0.01	0.386	0.0
0.01	0.387	0.0
0.01	0.388	0.0
0.01	0.389	0.0
0.01	0.39	0.0
0.01	0.391	0.0
0.01	0.392	0.0
0.01	0.393	0.0
0.01	0.394	0.0
0.01	0.395	0.0
0.01	0.396	0.0
0.01	0.397	0.0
0.01	0.398	0.0
0.01	0.399	0.0
0.01	0.4	0.0
0.02	0.001	0.0005221841119700738
0.02	0.002	0.0005966331610687309
0.02	0.003	0.000706313411274314
0.02	0.004	0.000937723423308306
0.02	0.005	0.0011429366483624664
0.02	0.006	0.0012804507345537276
0.02	0.007	0.0013739962887861013
0.02	0.008	0.0014373338304676485
0.02	0.009	0.001478582997793385
0.02	0.01	0.0015030323618284976
0.02	0.011	0.0015143862517182933
0.02	0.012	0.0015153735465105558
0.02	0.013	0.0015080764582712342
0.02	0.014	0.0014941235247602808
0.02	0.015	0.0014748110278655043
0.02	0.016	0.0014511834944529259
0.02	0.017	0.001424089934609624
0.02	0.018	0.0013942257504656376
0.02	0.019	0.0013621587072554183
0.02	0.02	0.0013283573875706985
0.02	0.021	0.0012932198438209402
0.02	0.022	0.0012570574982647999
0.02	0.023	0.0012200910798934276
0.02	0.024	0.0011825500353206753
0.02	0.025	0.0011447385175217969
0.02	0.026	0.0011068629268211232
0.02	0.027	0.0010687954732798237
0.02	0.028	0.0010301990519612553
0.02	0.029	0.0009910555263423452
0.02	0.03	0.0009521469471037038
0.02	0.031	0.0009148260411634725
0.02	0.032	0.000879798589937123
0.02	0.033	0.0008461456308917467
0.02	0.034	0.00081181630774754
0.02	0.035	0.0007746167713901428
0.02	0.036	0.0007326421339768812
0.02	0.037	0.0006843979727945419
0.02	0.038	0.0006297285792445323
0.02	0.039	0.0005753950284981017
0.02	0.04	0.000542021722760517
0.02	0.041	0.0005301250331295207
0.02	0.042	0.0005230717674467641
0.02	0.043	0.0005141178824623765
0.02	0.044	0.0005014742114492014
0.02	0.045	0.0004846019029908634
0.02	0.046	0.00046321870967677004
0.02	0.047	0.0004369980179277887
0.02	0.048	0.0004054145837140345
0.02	0.049	0.0003675627872994284
0.02	0.05	0.000321787739939262
0.02	0.051	0.00026467812081890335
0.02	0.052	0.00018703645455276383
0.02	0.053	0.0
0.02	0.054	0.0
0.02	0.055	0.0
0.02	0.056	0.0
0.02	0.057	0.0
0.02	0.058	0.0
0.02	0.059	0.0
0.02	0.06	0.0
0.02	0.061	0.0
0.02	0.062	0.0
0.02	0.063	0.0
0.02	0.064	0.0
0.02	0.065	0.0
0.02	0.066	0.0
0.02	0.067	0.0
0.02	0.068	0.0
0.02	0.069	0.0
0.02	0.07	0.0
0.02	0.071	0.0
0.02	0.072	0.0
0.02	0.073	0.0
0.02	0.074	0.0
0.02	0.075	0.0
0.02	0.076	0.0
0.02	0.077	0.0
0.02	0.078	0.0
0.02	0.079	0.0
0.02	0.08	0.0
0.02	0.081	0.0
0.02	0.082	0.0
0.02	0.083	0.0
0.02	0.084	0.0
0.02	0.085	0.0
0.02	0.086	0.0
0.02	0.087	0.0
0.02	0.088	0.0
0.02	0.089	0.0
0.02	0.09	0.0
0.02	0.091	0.0
0.02	0.092	0.0
0.02	0.093	0.0
0.02	0.094	0.0
0.02	0.095	0.0
0.02	0.096	0.0
0.02	0.097	0.0
0.02	0.098	0.0
0.02	0.099	0.0
0.02	0.1	0.0
0.02	0.101	0.0
0.02	0.102	0.0
0.02	0.103	0.0
0.02	0.104	0.0
0.02	0.105	0.0
0.02	0.106	0.0
0.02	0.107	0.0
0.02	0.108	0.0
0.02	0.109	0.0
0.02	0.11	0.0
0.02	0.111	0.0
0.02	0.112	0.0
0.02	0.113	0.0
0.02	0.114	0.0
0.02	0.115	0.0
0.02	0.116	0.0
0.02	0.117	0.0
0.02	0.118	0.0
0.02	0.119	0.0
0.02	0.12	0.0
0.02	0.121	0.0
0.02	0.122	0.0
0.02	0.123	0.0
0.02	0.124	0.0
0.02	0.125	0.0
0.02	0.126	0.0
0.02	0.127	0.0
0.02	0.128	0.0
0.02	0.129	0.0
0.02	0.13	0.0
0.02	0.131	0.0
0.02	0.132	0.0
0.02	0.133	0.0
0.02	0.134	0.0
0.02	0.135	0.0
0.02	0.136	0.0
0.02	0.137	0.0
0.02	0.138	0.0
0.02	0.139	0.0
0.02	0.14	0.0
0.02	0.141	0.0
0.02	0.142	0.0
0.02	0.143	0.0
0.02	0.144	0.0
0.02	0.145	0.0
0.02	0.146	0.0
0.02	0.147	0.0
0.02	0.148	0.0
0.02	0.149	0.0
0.02	0.15	0.0
0.02	0.151	0.0
0.02	0.152	0.0
0.02	0.153	0.0
0.02	0.154	0.0
0.02	0.155	0.0
0.02	0.156	0.0
0.02	0.157	0.0
0.02	0.158	0.0
0.02	0.159	0.0
0.02	0.16	0.0
0.02	0.161	0.0
0.02	0.162	0.0
0.02	0.163	0.0
0.02	0.164	0.0
0.02	0.165	0.0
0.02	0.166	0.0
0.02	0.167	0.0
0.02	0.168	0.0
0.02	0.169	0.0
0.02	0.17	0.0
0.02	0.171	0.0
0.02	0.172	0.0
0.02	0.173	0.0
0.02	0.174	0.0
0.02	0.175	0.0
0.02	0.176	0.0
0.02	0.177	0.0
0.02	0.178	0.0
0.02	0.179	0.0
0.02	0.18	0.0
0.02	0.181	0.0
0.02	0.182	0.0
0.02	0.183	0.0
0.02	0.184	0.0
0.02	0.185	0.0
0.02	0.186	0.0
0.02	0.187	0.0
0.02	0.188	0.0
0.02	0.189	0.0
0.02	0.19	0.0
0.02	0.191	0.0
0.02	0.192	0.0
0.02	0.193	0.0
0.02	0.194	0.0
0.02	0.195	0.0
0.02	0.196	0.0
0.02	0.197	0.0
0.02	0.198	0.0
0.02	0.199	0.0
0.02	0.2	0.0
0.02	0.201	0.0
0.02	0.202	0.0
0.02	0.203	0.0
0.02	0.204	0.0
0.02	0.205	0.0
0.02	0.206	0.0
0.02	0.207	0.0
0.02	0.208	0.0
0.02	0.209	0.0
0.02	0.21	0.0
0.02	0.211	0.0
0.02	0.212	0.0
0.02	0.213	0.0
0.02	0.214	0.0
0.02	0.215	0.0
0.02	0.216	0.0
0.02	0.217	0.0
0.02	0.218	0.0
0.02	0.219	0.0
0.02	0.22	0.0
0.02	0.221	0.0
0.02	0.222	0.0
0.02	0.223	0.0
0.02	0.224	0.0
0.02	0.225	0.0
0.02	0.226	0.0
0.02	0.227	0.0
0.02	0.228	0.0
0.02	0.229	0.0
0.02	0.23	0.0
0.02	0.231	0.0
0.02	0.232	0.0
0.02	0.233	0.0
0.02	0.234	0.0
0.02	0.235	0.0
0.02	0.236	0.0
0.02	0.237	0.0
0.02	0.238	0.0
0.02	0.239	0.0
0.02	0.24	0.0
0.02	0.241	0.0
0.02	0.242	0.0
0.02	0.243	0.0
0.02	0.244	0.0
0.02	0.245	0.0
0.02	0.246	0.0
0.02	0.247	0.0
0.02	0.248	0.0
0.02	0.249	0.0
0.02	0.25	0.0
0.02	0.251	0.0
0.02	0.252	0.0
0.02	0.253	0.0
0.02	0.254	0.0
0.02	0.255	0.0
0.02	0.256	0.0
0.02	0.257	0.0
0.02	0.258	0.0
0.02	0.259	0.0
0.02	0.26	0.0
0.02	0.261	0.0
0.02	0.262	0.0
0.02	0.263	0.0
0.02	0.264	0.0
0.02	0.265	0.0
0.02	0.266	0.0
0.02	0.267	0.0
0.02	0.268	0.0
0.02	0.269	0.0
0.02	0.27	0.0
0.02	0.271	0.0
0.02	0.272	0.0
0.02	0.273	0.0
0.02	0.274	0.0
0.02	0.275	0.0
0.02	0.276	0.0
0.02	0.277	0.0
0.02	0.278	0.0
0.02	0.279	0.0
0.02	0.28	0.0
0.02	0.281	0.0
0.02	0.282	0.0
0.02	0.283	0.0
0.02	0.284	0.0
0.02	0.285	0.0
0.02	0.286	0.0
0.02	0.287	0.0
0.02	0.288	0.0
0.02	0.289	0.0
0.02	0.29	0.0
0.02	0.291	0.0
0.02	0.292	0.0
0.02	0.293	0.0
0.02	0.294	0.0
0.02	0.295	0.0
0.02	0.296	0.0
0.02	0.297	0.0
0.02	0.298	0.0
0.02	0.299	0.0
0.02	0.3	0.0
0.02	0.301	0.0
0.02	0.302	0.0
0.02	0.303	0.0
0.02	0.304	0.0
0.02	0.305	0.0
0.02	0.306	0.0
0.02	0.307	0.0
0.02	0.308	0.0
0.02	0.309	0.0
0.02	0.31	0.0
0.02	0.311	0.0
0.02	0.312	0.0
0.02	0.313	0.0
0.02	0.314	0.0
0.02	0.315	0.0
0.02	0.316	0.0
0.02	0.317	0.0
0.02	0.318	0.0
0.02	0.319	0.0
0.02	0.32	0.0
0.02	0.321	0.0
0.02	0.322	0.0
0.02	0.323	0.0
0.02	0.324	0.0
0.02	0.325	0.0
0.02	0.326	0.0
0.02	0.327	0.0
0.02	0.328	0.0
0.02	0.329	0.0
0.02	0.33	0.0
0.02	0.331	0.0
0.02	0.332	0.0
0.02	0.333	0.0
0.02	0.334	0.0
0.02	0.335	0.0
0.02	0.336	0.0
0.02	0.337	0.0
0.02	0.338	0.0
0.02	0.339	0.0
0.02	0.34	0.0
0.02	0.341	0.0
0.02	0.342	0.0
0.02	0.343	0.0
0.02	0.344	0.0
0.02	0.345	0.0
0.02	0.346	0.0
0.02	0.347	0.0
0.02	0.348	0.0
0.02	0.349	0.0
0.02	0.35	0.0
0.02	0.351	0.0
0.02	0.352	0.0
0.02	0.353	0.0
0.02	0.354	0.0
0.02	0.355	0.0
0.02	0.356	0.0
0.02	0.357	0.0
0.02	0.358	0.0
0.02	0.359	0.0
0.02	0.36	0.0
0.02	0.361	0.0
0.02	0.362	0.0
0.02	0.363	0.0
0.02	0.364	0.0
0.02	0.365	0.0
0.02	0.366	0.0
0.02	0.367	0.0
0.02	0.368	0.0
0.02	0.369	0.0
0.02	0.37	0.0
0.02	0.371	0.0
0.02	0.372	0.0
0.02	0.373	0.0
0.02	0.374	0.0
0.02	0.375	0.0
0.02	0.376	0.0
0.02	0.377	0.0
0.02	0.378	0.0
0.02	0.379	0.0
0.02	0.38	0.0
0.02	0.381	0.0
0.02	0.382	0.0
0.02	0.383	0.0
0.02	0.384	0.0
0.02	0.385	0.0
0.02	0.386	0.0
0.02	0.387	0.0
0.02	0.388	0.0
0.02	0.389	0.0
0.02	0.39	0.0
0.02	0.391	0.0
0.02	0.392	0.0
0.02	0.393	0.0
0.02	0.394	0.0
0.02	0.395	0.0
0.02	0.396	0.0
0.02	0.397	0.0
0.02	0.398	0.0
0.02	0.399	0.0
0.02	0.4	0.0
0.03	0.001	0.000747078356107429
0.03	0.002	0.0008163915847745815
0.03	0.003	0.0008923423891588116
0.03	0.004	0.0009879138688034695
0.03	0.005	0.0011544882894747334
0.03	0.006	0.001406443219534961
0.03	0.007	0.0016249847377708669
0.03	0.008	0.0017917408720191216
0.03	0.009	0.0019196776636510292
0.03	0.01	0.002018664482586287
0.03	0.011	0.002095238583465527
0.03	0.012	0.0021539058944976095
0.03	0.013	0.002197929840252765
0.03	0.014	0.0022297744375567832
0.03	0.015	0.0022513624708852113
0.03	0.016	0.0022642336309866362
0.03	0.017	0.0022696460798919222
0.03	0.018	0.002268644448515242
0.03	0.019	0.0022621071042940866
0.03	0.02	0.002250780029414163
0.03	0.021	0.002235301771677355
0.03	0.022	0.002216222473146449
0.03	0.023	0.0021940184622787013
0.03	0.024	0.0021691034553282923
0.03	0.025	0.0021418380955566534
0.03	0.026	0.0021125382427558373
0.03	0.027	0.002081480375272493
0.03	0.028	0.0020489047389181904
0.03	0.029	0.0020150207278178942
0.03	0.03	0.00198001583351076
0.03	0.031	0.0019440610330445959
0.03	0.032	0.0019073050349967403
0.03	0.033	0.0018698628546551163
0.03	0.034	0.0018318166843853776
0.03	0.035	0.0017932406273716086
0.03	0.036	0.0017542368843651234
0.03	0.037	0.001714951122276083
0.03	0.038	0.0016755398574870375
0.03	0.039	0.0016360960226059517
0.03	0.04	0.0015965793088652779
0.03	0.041	0.0015568076641789407
0.03	0.042	0.0015165311261206508
0.03	0.043	0.0014755640295399915
0.03	0.044	0.0014339340699276333
0.03	0.045	0.0013920044990695247
0.03	0.046	0.0013505015268624825
0.03	0.047	0.0013103447537277967
0.03	0.048	0.001272249581533955
0.03	0.049	0.0012363162058140666
0.03	0.05	0.0012019393965733097
0.03	0.051	0.0011680700897949252
0.03	0.052	0.0011335452737297942
0.03	0.053	0.0010972744730860988
0.03	0.054	0.0010582733758812775
0.03	0.055	0.0010156099287535845
0.03	0.056	0.0009683069667556974
0.03	0.057	0.0009152071206056087
0.03	0.058	0.0008547716848611145
0.03	0.059	0.0007847531773431013
0.03	0.06	0.0007017810363388836
0.03	0.061	0.0006039745011149356
0.03	0.062	0.0005371480241280257
0.03	0.063	0.0005414506556912265
0.03	0.064	0.0005524993834606653
0.03	0.065	0.0005584818032909755
0.03	0.066	0.0005591276686765782
0.03	0.067	0.0005550426720387458
0.03	0.068	0.0005467424933801276
0.03	0.069	0.0005345749323737344
0.03	0.07	0.0005187379841388801
0.03	0.071	0.0004992964068538515
0.03	0.072	0.00047618253637397786
0.03	0.073	0.0004491761482937982
0.03	0.074	0.0004178527394768199
0.03	0.075	0.0003814728068705936
0.03	0.076	0.00033873725459517684
0.03	0.077	0.0002871684996585939
0.03	0.078	0.00022106902882650822
0.03	0.079	0.00011884677274753003
0.03	0.08	0.0
0.03	0.081	0.0
0.03	0.082	0.0
0.03	0.083	0.0
0.03	0.084	0.0
0.03	0.085	0.0
0.03	0.086	0.0
0.03	0.087	0.0
0.03	0.088	0.0
0.03	0.089	0.0
0.03	0.09	0.0
0.03	0.091	0.0
0.03	0.092	0.0
0.03	0.093	0.0
0.03	0.094	0.0
0.03	0.095	0.0
0.03	0.096	0.0
0.03	0.097	0.0
0.03	0.098	0.0
0.03	0.099	0.0
0.03	0.1	0.0
0.03	0.101	0.0
0.03	0.102	0.0
0.03	0.103	0.0
0.03	0.104	0.0
0.03	0.105	0.0
0.03	0.106	0.0
0.03	0.107	0.0
0.03	0.108	0.0
0.03	0.109	0.0
0.03	0.11	0.0
0.03	0.111	0.0
0.03	0.112	0.0
0.03	0.113	0.0
0.03	0.114	0.0
0.03	0.115	0.0
0.03	0.116	0.0
0.03	0.117	0.0
0.03	0.118	0.0
0.03	0.119	0.0
0.03	0.12	0.0
0.03	0.121	0.0
0.03	0.122	0.0
0.03	0.123	0.0
0.03	0.124	0.0
0.03	0.125	0.0
0.03	0.126	0.0
0.03	0.127	0.0
0.03	0.128	0.0
0.03	0.129	0.0
0.03	0.13	0.0
0.03	0.131	0.0
0.03	0.132	0.0
0.03	0.133	0.0
0.03	0.134	0.0
0.03	0.135	0.0
0.03	0.136	0.0
0.03	0.137	0.0
0.03	0.138	0.0
0.03	0.139	0.0
0.03	0.14	0.0
0.03	0.141	0.0
0.03	0.142	0.0
0.03	0.143	0.0
0.03	0.144	0.0
0.03	0.145	0.0
0.03	0.146	0.0
0.03	0.147	0.0
0.03	0.148	0.0
0.03	0.149	0.0
0.03	0.15	0.0
0.03	0.151	0.0
0.03	0.152	0.0
0.03	0.153	0.0
0.03	0.154	0.0
0.03	0.155	0.0
0.03	0.156	0.0
0.03	0.157	0.0
0.03	0.158	0.0
0.03	0.159	0.0
0.03	0.16	0.0
0.03	0.161	0.0
0.03	0.162	0.0
0.03	0.163	0.0
0.03	0.164	0.0
0.03	0.165	0.0
0.03	0.166	0.0
0.03	0.167	0.0
0.03	0.168	0.0
0.03	0.169	0.0
0.03	0.17	0.0
0.03	0.171	0.0
0.03	0.172	0.0
0.03	0.173	0.0
0.03	0.174	0.0
0.03	0.175	0.0
0.03	0.176	0.0
0.03	0.177	0.0
0.03	0.178	0.0
0.03	0.179	0.0
0.03	0.18	0.0
0.03	0.181	0.0
0.03	0.182	0.0
0.03	0.183	0.0
0.03	0.184	0.0
0.03	0.185	0.0
0.03	0.186	0.0
0.03	0.187	0.0
0.03	0.188	0.0
0.03	0.189	0.0
0.03	0.19	0.0
0.03	0.191	0.0
0.03	0.192	0.0
0.03	0.193	0.0
0.03	0.194	0.0
0.03	0.195	0.0
0.03	0.196	0.0
0.03	0.197	0.0
0.03	0.198	0.0
0.03	0.199	0.0
0.03	0.2	0.0
0.03	0.201	0.0
0.03	0.202	0.0
0.03	0.203	0.0
0.03	0.204	0.0
0.03	0.205	0.0
0.03	0.206	0.0
0.03	0.207	0.0
0.03	0.208	0.0
0.03	0.209	0.0
0.03	0.21	0.0
0.03	0.211	0.0
0.03	0.212	0.0
0.03	0.213	0.0
0.03	0.214	0.0
0.03	0.215	0.0
0.03	0.216	0.0
0.03	0.217	0.0
0.03	0.218	0.0
0.03	0.219	0.0
0.03	0.22	0.0
0.03	0.221	0.0
0.03	0.222	0.0
0.03	0.223	0.0
0.03	0.224	0.0
0.03	0.225	0.0
0.03	0.226	0.0
0.03	0.227	0.0
0.03	0.228	0.0
0.03	0.229	0.0
0.03	0.23	0.0
0.03	0.231	0.0
0.03	0.232	0.0
0.03	0.233	0.0
0.03	0.234	0.0
0.03	0.235	0.0
0.03	0.236	0.0
0.03	0.237	0.0
0.03	0.238	0.0
0.03	0.239	0.0
0.03	0.24	0.0
0.03	0.241	0.0
0.03	0.242	0.0
0.03	0.243	0.0
0.03	0.244	0.0
0.03	0.245	0.0
0.03	0.246	0.0
0.03	0.247	0.0
0.03	0.248	0.0
0.03	0.249	0.0
0.03	0.25	0.0
0.03	0.251	0.0
0.03	0.252	0.0
0.03	0.253	0.0
0.03	0.254	0.0
0.03	0.255	0.0
0.03	0.256	0.0
0.03	0.257	0.0
0.03	0.258	0.0
0.03	0.259	0.0
0.03	0.26	0.0
0.03	0.261	0.0
0.03	0.262	0.0
0.03	0.263	0.0
0.03	0.264	0.0
0.03	0.265	0.0
0.03	0.266	0.0
0.03	0.267	0.0
0.03	0.268	0.0
0.03	0.269	0.0
0.03	0.27	0.0
0.03	0.271	0.0
0.03	0.272	0.0
0.03	0.273	0.0
0.03	0.274	0.0
0.03	0.275	0.0
0.03	0.276	0.0
0.03	0.277	0.0
0.03	0.278	0.0
0.03	0.279	0.0
0.03	0.28	0.0
0.03	0.281	0.0
0.03	0.282	0.0
0.03	0.283	0.0
0.03	0.284	0.0
0.03	0.285	0.0
0.03	0.286	0.0
0.03	0.287	0.0
0.03	0.288	0.0
0.03	0.289	0.0
0.03	0.29	0.0
0.03	0.291	0.0
0.03	0.292	0.0
0.03	0.293	0.0
0.03	0.294	0.0
0.03	0.295	0.0
0.03	0.296	0.0
0.03	0.297	0.0
0.03	0.298	0.0
0.03	0.299	0.0
0.03	0.3	0.0
0.03	0.301	0.0
0.03	0.302	0.0
0.03	0.303	0.0
0.03	0.304	0.0
0.03	0.305	0.0
0.03	0.306	0.0
0.03	0.307	0.0
0.03	0.308	0.0
0.03	0.309	0.0
0.03	0.31	0.0
0.03	0.311	0.0
0.03	0.312	0.0
0.03	0.313	0.0
0.03	0.314	0.0
0.03	0.315	0.0
0.03	0.316	0.0
0.03	0.317	0.0
0.03	0.318	0.0
0.03	0.319	0.0
0.03	0.32	0.0
0.03	0.321	0.0
0.03	0.322	0.0
0.03	0.323	0.0
0.03	0.324	0.0
0.03	0.325	0.0
0.03	0.326	0.0
0.03	0.327	0.0
0.03	0.328	0.0
0.03	0.329	0.0
0.03	0.33	0.0
0.03	0.331	0.0
0.03	0.332	0.0
0.03	0.333	0.0
0.03	0.334	0.0
0.03	0.335	0.0
0.03	0.336	0.0
0.03	0.337	0.0
0.03	0.338	0.0
0.03	0.339	0.0
0.03	0.34	0.0
0.03	0.341	0.0
0.03	0.342	0.0
0.03	0.343	0.0
0.03	0.344	0.0
0.03	0.345	0.0
0.03	0.346	0.0
0.03	0.347	0.0
0.03	0.348	0.0
0.03	0.349	0.0
0.03	0.35	0.0
0.03	0.351	0.0
0.03	0.352	0.0
0.03	0.353	0.0
0.03	0.354	0.0
0.03	0.355	0.0
0.03	0.356	0.0
0.03	0.357	0.0
0.03	0.358	0.0
0.03	0.359	0.0
0.03	0.36	0.0
0.03	0.361	0.0
0.03	0.362	0.0
0.03	0.363	0.0
0.03	0.364	0.0
0.03	0.365	0.0
0.03	0.366	0.0
0.03	0.367	0.0
0.03	0.368	0.0
0.03	0.369	0.0
0.03	0.37	0.0
0.03	0.371	0.0
0.03	0.372	0.0
0.03	0.373	0.0
0.03	0.374	0.0
0.03	0.375	0.0
0.03	0.376	0.0
0.03	0.377	0.0
0.03	0.378	0.0
0.03	0.379	0.0
0.03	0.38	0.0
0.03	0.381	0.0
0.03	0.382	0.0
0.03	0.383	0.0
0.03	0.384	0.0
0.03	0.385	0.0
0.03	0.386	0.0
0.03	0.387	0.0
0.03	0.388	0.0
0.03	0.389	0.0
0.03	0.39	0.0
0.03	0.391	0.0
0.03	0.392	0.0
0.03	0.393	0.0
0.03	0.394	0.0
0.03	0.395	0.0
0.03	0.396	0.0
0.03	0.397	0.0
0.03	0.398	0.0
0.03	0.399	0.0
0.03	0.4	0.0
0.04	0.001	0.00097027931569454
0.04	0.002	0.0010376512261239224
0.04	0.003	0.0011083274564745343
0.04	0.004	0.0011848781903361198
0.04	0.005	0.0012752158298209102
0.04	0.006	0.0014041662133702417
0.04	0.007	0.0016172267972492922
0.04	0.008	0.0018748976017887269
0.04	0.009	0.0021004889689952683
0.04	0.01	0.0022844330555019557
0.04	0.011	0.002434404082586494
0.04	0.012	0.0025575373599209007
0.04	0.013	0.0026590684728071043
0.04	0.014	0.002742816219589502
0.04	0.015	0.0028116418604605944
0.04	0.016	0.002867753989110936
0.04	0.017	0.002912903432093249
0.04	0.018	0.002948509846648603
0.04	0.019	0.0029757462801585804
0.04	0.02	0.002995597331580227
0.04	0.021	0.003008900277883149
0.04	0.022	0.0030163749076468614
0.04	0.023	0.003018645649346323
0.04	0.024	0.0030162583372669613
0.04	0.025	0.0030096931657548434
0.04	0.026	0.0029993748554280925
0.04	0.027	0.002985680709322608
0.04	0.028	0.002968947170059729
0.04	0.029	0.0029494752542957798
0.04	0.03	0.002927535007748862
0.04	0.031	0.002903369080063274
0.04	0.032	0.0028771957504633142
0.04	0.033	0.0028492118037531907
0.04	0.034	0.0028195952553031474
0.04	0.035	0.0027885074182656495
0.04	0.036	0.002756093946712103
0.04	0.037	0.002722485357464629
0.04	0.038	0.002687798277004045
0.04	0.039	0.002652138262443832
0.04	0.04	0.002615603484769968
0.04	0.041	0.002578287053762184
0.04	0.042	0.002540275803112476
0.04	0.043	0.0025016454160331617
0.04	0.044	0.0024624547406005433
0.04	0.045	0.002422743934239097
0.04	0.046	0.0023825400972200426
0.04	0.047	0.0023418704553031474
0.04	0.048	0.002300778742100736
0.04	0.049	0.002259337379991231
0.04	0.05	0.002217647781574971
0.04	0.051	0.002175824190652405
0.04	0.052	0.0021339627671005295
0.04	0.053	0.0020921052294430743
0.04	0.054	0.0020502111834983655
0.04	0.055	0.002008151270513538
0.04	0.056	0.0019657249801331832
0.04	0.057	0.0019226981370221257
0.04	0.058	0.0018788514875862454
0.04	0.059	0.0018340342468648862
0.04	0.06	0.0017882210638845123
0.04	0.061	0.00174157243600311
0.04	0.062	0.001694492009942685
0.04	0.063	0.001647655072841697
0.04	0.064	0.0016019554383463063
0.04	0.065	0.0015583163608273057
0.04	0.066	0.001517391008398227
0.04	0.067	0.001479313255554424
0.04	0.068	0.0014436725602120853
0.04	0.069	0.0014097041460221563
0.04	0.07	0.0013765312101646557
0.04	0.071	0.0013433298810891995
0.04	0.072	0.0013093958171292355
0.04	0.073	0.00127414712986057
0.04	0.074	0.0012370994661574349
0.04	0.075	0.0011978337006279198
0.04	0.076	0.0011559642880850137
0.04	0.077	0.001111109656837814
0.04	0.078	0.0010628628833878053
0.04	0.079	0.0010107590485076224
0.04	0.08	0.0009542335223771698
0.04	0.081	0.0008925612817170164
0.04	0.082	0.0008247580088435706
0.04	0.083	0.0007494005465228066
0.04	0.084	0.0006642593491197538
0.04	0.085	0.0005654175441369867
0.04	0.086	0.00044457553159467714
0.04	0.087	0.00027551715323502165
0.04	0.088	0.0
0.04	0.089	0.0
0.04	0.09	0.0
0.04	0.091	0.0
0.04	0.092	0.0
0.04	0.093	0.0
0.04	0.094	0.0
0.04	0.095	0.0
0.04	0.096	0.0
0.04	0.097	0.0
0.04	0.098	0.0
0.04	0.099	0.0
0.04	0.1	0.0
0.04	0.101	0.0
0.04	0.102	0.0
0.04	0.103	0.0
0.04	0.104	0.0
0.04	0.105	0.0
0.04	0.106	0.0
0.04	0.107	0.0
0.04	0.108	0.0
0.04	0.109	0.0
0.04	0.11	0.0
0.04	0.111	0.0
0.04	0.112	0.0
0.04	0.113	0.0
0.04	0.114	0.0
0.04	0.115	0.0
0.04	0.116	0.0
0.04	0.117	0.0
0.04	0.118	0.0
0.04	0.119	0.0
0.04	0.12	0.0
0.04	0.121	0.0
0.04	0.122	0.0
0.04	0.123	0.0
0.04	0.124	0.0
0.04	0.125	0.0
0.04	0.126	0.0
0.04	0.127	0.0
0.04	0.128	0.0
0.04	0.129	0.0
0.04	0.13	0.0
0.04	0.131	0.0
0.04	0.132	0.0
0.04	0.133	0.0
0.04	0.134	0.0
0.04	0.135	0.0
0.04	0.136	0.0
0.04	0.137	0.0
0.04	0.138	0.0
0.04	0.139	0.0
0.04	0.14	0.0
0.04	0.141	0.0
0.04	0.142	0.0
0.04	0.143	0.0
0.04	0.144	0.0
0.04	0.145	0.0
0.04	0.146	0.0
0.04	0.147	0.0
0.04	0.148	0.0
0.04	0.149	0.0
0.04	0.15	0.0
0.04	0.151	0.0
0.04	0.152	0.0
0.04	0.153	0.0
0.04	0.154	0.0
0.04	0.155	0.0
0.04	0.156	0.0
0.04	0.157	0.0
0.04	0.158	0.0
0.04	0.159	0.0
0.04	0.16	0.0
0.04	0.161	0.0
0.04	0.162	0.0
0.04	0.163	0.0
0.04	0.164	0.0
0.04	0.165	0.0
0.04	0.166	0.0
0.04	0.167	0.0
0.04	0.168	0.0
0.04	0.169	0.0
0.04	0.17	0.0
0.04	0.171	0.0
0.04	0.172	0.0
0.04	0.173	0.0
0.04	0.174	0.0
0.04	0.175	0.0
0.04	0.176	0.0
0.04	0.177	0.0
0.04	0.178	0.0
0.04	0.179	0.0
0.04	0.18	0.0
0.04	0.181	0.0
0.04	0.182	0.0
0.04	0.183	0.0
0.04	0.184	0.0
0.04	0.185	0.0
0.04	0.186	0.0
0.04	0.187	0.0
0.04	0.188	0.0
0.04	0.189	0.0
0.04	0.19	0.0
0.04	0.191	0.0
0.04	0.192	0.0
0.04	0.193	0.0
0.04	0.194	0.0
0.04	0.195	0.0
0.04	0.196	0.0
0.04	0.197	0.0
0.04	0.198	0.0
0.04	0.199	0.0
0.04	0.2	0.0
0.04	0.201	0.0
0.04	0.202	0.0
0.04	0.203	0.0
0.04	0.204	0.0
0.04	0.205	0.0
0.04	0.206	0.0
0.04	0.207	0.0
0.04	0.208	0.0
0.04	0.209	0.0
0.04	0.21	0.0
0.04	0.211	0.0
0.04	0.212	0.0
0.04	0.213	0.0
0.04	0.214	0.0
0.04	0.215	0.0
0.04	0.216	0.0
0.04	0.217	0.0
0.04	0.218	0.0
0.04	0.219	0.0
0.04	0.22	0.0
0.04	0.221	0.0
0.04	0.222	0.0
0.04	0.223	0.0
0.04	0.224	0.0
0.04	0.225	0.0
0.04	0.226	0.0
0.04	0.227	0.0
0.04	0.228	0.0
0.04	0.229	0.0
0.04	0.23	0.0
0.04	0.231	0.0
0.04	0.232	0.0
0.04	0.233	0.0
0.04	0.234	0.0
0.04	0.235	0.0
0.04	0.236	0.0
0.04	0.237	0.0
0.04	0.238	0.0
0.04	0.239	0.0
0.04	0.24	0.0
0.04	0.241	0.0
0.04	0.242	0.0
0.04	0.243	0.0
0.04	0.244	0.0
0.04	0.245	0.0
0.04	0.246	0.0
0.04	0.247	0.0
0.04	0.248	0.0
0.04	0.249	0.0
0.04	0.25	0.0
0.04	0.251	0.0
0.04	0.252	0.0
0.04	0.253	0.0
0.04	0.254	0.0
0.04	0.255	0.0
0.04	0.256	0.0
0.04	0.257	0.0
0.04	0.258	0.0
0.04	0.259	0.0
0.04	0.26	0.0
0.04	0.261	0.0
0.04	0.262	0.0
0.04	0.263	0.0
0.04	0.264	0.0
0.04	0.265	0.0
0.04	0.266	0.0
0.04	0.267	0.0
0.04	0.268	0.0
0.04	0.269	0.0
0.04	0.27	0.0
0.04	0.271	0.0
0.04	0.272	0.0
0.04	0.273	0.0
0.04	0.274	0.0
0.04	0.275	0.0
0.04	0.276	0.0
0.04	0.277	0.0
0.04	0.278	0.0
0.04	0.279	0.0
0.04	0.28	0.0
0.04	0.281	0.0
0.04	0.282	0.0
0.04	0.283	0.0
0.04	0.284	0.0
0.04	0.285	0.0
0.04	0.286	0.0
0.04	0.287	0.0
0.04	0.288	0.0
0.04	0.289	0.0
0.04	0.29	0.0
0.04	0.291	0.0
0.04	0.292	0.0
0.04	0.293	0.0
0.04	0.294	0.0
0.04	0.295	0.0
0.04	0.296	0.0
0.04	0.297	0.0
0.04	0.298	0.0
0.04	0.299	0.0
0.04	0.3	0.0
0.04	0.301	0.0
0.04	0.302	0.0
0.04	0.303	0.0
0.04	0.304	0.0
0.04	0.305	0.0
0.04	0.306	0.0
0.04	0.307	0.0
0.04	0.308	0.0
0.04	0.309	0.0
0.04	0.31	0.0
0.04	0.311	0.0
0.04	0.312	0.0
0.04	0.313	0.0
0.04	0.314	0.0
0.04	0.315	0.0
0.04	0.316	0.0
0.04	0.317	0.0
0.04	0.318	0.0
0.04	0.319	0.0
0.04	0.32	0.0
0.04	0.321	0.0
0.04	0.322	0.0
0.04	0.323	0.0
0.04	0.324	0.0
0.04	0.325	0.0
0.04	0.326	0.0
0.04	0.327	0.0
0.04	0.328	0.0
0.04	0.329	0.0
0.04	0.33	0.0
0.04	0.331	0.0
0.04	0.332	0.0
0.04	0.333	0.0
0.04	0.334	0.0
0.04	0.335	0.0
0.04	0.336	0.0
0.04	0.337	0.0
0.04	0.338	0.0
0.04	0.339	0.0
0.04	0.34	0.0
0.04	0.341	0.0
0.04	0.342	0.0
0.04	0.343	0.0
0.04	0.344	0.0
0.04	0.345	0.0
0.04	0.346	0.0
0.04	0.347	0.0
0.04	0.348	0.0
0.04	0.349	0.0
0.04	0.35	0.0
0.04	0.351	0.0
0.04	0.352	0.0
0.04	0.353	0.0
0.04	0.354	0.0
0.04	0.355	0.0
0.04	0.356	0.0
0.04	0.357	0.0
0.04	0.358	0.0
0.04	0.359	0.0
0.04	0.36	0.0
0.04	0.361	0.0
0.04	0.362	0.0
0.04	0.363	0.0
0.04	0.364	0.0
0.04	0.365	0.0
0.04	0.366	0.0
0.04	0.367	0.0
0.04	0.368	0.0
0.04	0.369	0.0
0.04	0.37	0.0
0.04	0.371	0.0
0.04	0.372	0.0
0.04	0.373	0.0
0.04	0.374	0.0
0.04	0.375	0.0
0.04	0.376	0.0
0.04	0.377	0.0
0.04	0.378	0.0
0.04	0.379	0.0
0.04	0.38	0.0
0.04	0.381	0.0
0.04	0.382	0.0
0.04	0.383	0.0
0.04	0.384	0.0
0.04	0.385	0.0
0.04	0.386	0.0
0.04	0.387	0.0
0.04	0.388	0.0
0.04	0.389	0.0
0.04	0.39	0.0
0.04	0.391	0.0
0.04	0.392	0.0
0.04	0.393	0.0
0.04	0.394	0.0
0.04	0.395	0.0
0.04	0.396	0.0
0.04	0.397	0.0
0.04	0.398	0.0
0.04	0.399	0.0
0.04	0.4	0.0
0.05	0.001	0.0011907372267915787
0.05	0.002	0.0012568355966182648
0.05	0.003	0.001325139182507945
0.05	0.004	0.0013965066977398046
0.05	0.005	0.001473113801799277
0.05	0.006	0.0015604227923503137
0.05	0.007	0.0016725373950148177
0.05	0.008	0.0018407957245888508
0.05	0.009	0.0020833643118989133
0.05	0.01	0.00234284606914767
0.05	0.011	0.0025727987563897757
0.05	0.012	0.002767842388289401
0.05	0.013	0.002932931829241912
0.05	0.014	0.0030733505064321517
0.05	0.015	0.003193309201103091
0.05	0.016	0.003296040018795214
0.05	0.017	0.0033840458179845204
0.05	0.018	0.0034593020527159514
0.05	0.019	0.0035233995424559686
0.05	0.02	0.003577643309931014
0.05	0.021	0.003623121564130645
0.05	0.022	0.003660754677670644
0.05	0.023	0.003691330657317022
0.05	0.024	0.0037155313248346516
0.05	0.025	0.003733951998082327
0.05	0.026	0.003747116557098288
0.05	0.027	0.003755489139279969
0.05	0.028	0.0037594833708573363
0.05	0.029	0.0037594697196790035
0.05	0.03	0.003755781463303218
0.05	0.031	0.003748719569117519
0.05	0.032	0.003738556730729844
0.05	0.033	0.003725540711674081
0.05	0.034	0.003709897159663441
0.05	0.035	0.0036918320256911024
0.05	0.036	0.0036715336686571234
0.05	0.037	0.003649174657129633
0.05	0.038	0.003624913262616362
0.05	0.039	0.003598894701775677
0.05	0.04	0.0035712522594948
0.05	0.041	0.0035421084273252767
0.05	0.042	0.003511576067435117
0.05	0.043	0.0034797594500515982
0.05	0.044	0.0034467549434791735
0.05	0.045	0.0034126512590031415
0.05	0.046	0.003377529423730792
0.05	0.047	0.003341462902371645
0.05	0.048	0.003304518319931672
0.05	0.049	0.0032667569661956847
0.05	0.05	0.0032282367846717002
0.05	0.051	0.0031890141030705105
0.05	0.052	0.0031491442054739313
0.05	0.053	0.003108680125840336
0.05	0.054	0.003067669713488552
0.05	0.055	0.003026151848024648